CRYSTAL
PRIMVEC
  6.000023   0.000000   0.000000
  0.000000   6.000023   0.000000
  0.000000   0.000000   7.000009
PRIMCOORD
2 1
 6   0.000000   0.000000  -0.016053
 8   0.000000   0.000000   1.116261
BEGIN_BLOCK_DATAGRID_3D
 /tmp/tmp36dcm4km/n
 BEGIN_DATAGRID_3D_/tmp/tmp36dcm4km/n
  57 57 71
    0.000000   0.000000   0.000000
    6.000023   0.000000   0.000000
    0.000000   6.000023   0.000000
    0.000000   0.000000   7.000009
  3.357586e-02 7.299547e-02 1.473834e-01 1.889748e-01 1.820934e-01 1.487520e-01 1.104757e-01 7.736999e-02 5.208453e-02 3.436503e-02 2.264146e-02 1.490284e-02 9.674046e-03 6.214983e-03 4.046439e-03 2.690883e-03 1.785161e-03 1.162693e-03 7.589914e-04 5.075931e-04 3.430677e-04 2.295714e-04 1.546470e-04 1.078233e-04 7.715836e-05 5.599058e-05 4.298331e-05 3.696474e-05 3.543818e-05 3.696474e-05 4.298331e-05 5.599058e-05 7.715836e-05 1.078233e-04 1.546470e-04 2.295714e-04 3.430677e-04 5.075931e-04 7.589914e-04 1.162693e-03 1.785161e-03 2.690883e-03 4.046439e-03 6.214983e-03 9.674046e-03 1.490284e-02 2.264146e-02 3.436503e-02 5.208453e-02 7.736999e-02 1.104757e-01 1.487520e-01 1.820934e-01 1.889748e-01 1.473834e-01 7.299547e-02 3.357586e-02
  7.299547e-02 1.041035e-01 1.617122e-01 1.907462e-01 1.788656e-01 1.449195e-01 1.074731e-01 7.532932e-02 5.079215e-02 3.358109e-02 2.216911e-02 1.461416e-02 9.499556e-03 6.112780e-03 3.985792e-03 2.652313e-03 1.759669e-03 1.146639e-03 7.498470e-04 5.030525e-04 3.410768e-04 2.284746e-04 1.535929e-04 1.067399e-04 7.629738e-05 5.542887e-05 4.256603e-05 3.655180e-05 3.500525e-05 3.655180e-05 4.256603e-05 5.542887e-05 7.629738e-05 1.067399e-04 1.535929e-04 2.284746e-04 3.410768e-04 5.030525e-04 7.498470e-04 1.146639e-03 1.759669e-03 2.652313e-03 3.985792e-03 6.112780e-03 9.499556e-03 1.461416e-02 2.216911e-02 3.358109e-02 5.079215e-02 7.532932e-02 1.074731e-01 1.449195e-01 1.788656e-01 1.907462e-01 1.617122e-01 1.041035e-01 7.299547e-02
  1.473834e-01 1.617122e-01 1.855205e-01 1.894750e-01 1.680874e-01 1.337963e-01 9.895068e-02 6.953590e-02 4.711677e-02 3.135271e-02 2.082591e-02 1.379000e-02 8.997999e-03 5.817331e-03 3.810967e-03 2.542910e-03 1.688819e-03 1.102363e-03 7.240327e-04 4.891099e-04 3.337888e-04 2.239163e-04 1.498026e-04 1.035501e-04 7.412049e-05 5.412934e-05 4.156897e-05 3.549022e-05 3.386564e-05 3.549022e-05 4.156897e-05 5.412934e-05 7.412049e-05 1.035501e-04 1.498026e-04 2.239163e-04 3.337888e-04 4.891099e-04 7.240327e-04 1.102363e-03 1.688819e-03 2.542910e-03 3.810967e-03 5.817331e-03 8.997999e-03 1.379000e-02 2.082591e-02 3.135271e-02 4.711677e-02 6.953590e-02 9.895068e-02 1.337963e-01 1.680874e-01 1.894750e-01 1.855205e-01 1.617122e-01 1.473834e-01
  1.889748e-01 1.907462e-01 1.894750e-01 1.755338e-01 1.488347e-01 1.167306e-01 8.625813e-02 6.091652e-02 4.164140e-02 2.802786e-02 1.881020e-02 1.254078e-02 8.229641e-03 5.361106e-03 3.541225e-03 2.376492e-03 1.582997e-03 1.036447e-03 6.842389e-04 4.653643e-04 3.192971e-04 2.142332e-04 1.427646e-04 9.872443e-05 7.137470e-05 5.263199e-05 4.031291e-05 3.405020e-05 3.230664e-05 3.405020e-05 4.031291e-05 5.263199e-05 7.137470e-05 9.872443e-05 1.427646e-04 2.142332e-04 3.192971e-04 4.653643e-04 6.842389e-04 1.036447e-03 1.582997e-03 2.376492e-03 3.541225e-03 5.361106e-03 8.229641e-03 1.254078e-02 1.881020e-02 2.802786e-02 4.164140e-02 6.091652e-02 8.625813e-02 1.167306e-01 1.488347e-01 1.755338e-01 1.894750e-01 1.907462e-01 1.889748e-01
  1.820934e-01 1.788656e-01 1.680874e-01 1.488347e-01 1.233616e-01 9.620600e-02 7.132770e-02 5.080674e-02 3.521045e-02 2.408695e-02 1.637906e-02 1.100877e-02 7.278526e-03 4.792972e-03 3.203210e-03 2.166769e-03 1.448976e-03 9.521799e-04 6.320602e-04 4.326005e-04 2.981677e-04 2.002358e-04 1.335055e-04 9.301900e-05 6.824964e-05 5.077615e-05 3.868401e-05 3.236545e-05 3.059507e-05 3.236545e-05 3.868401e-05 5.077615e-05 6.824964e-05 9.301900e-05 1.335055e-04 2.002358e-04 2.981677e-04 4.326005e-04 6.320602e-04 9.521799e-04 1.448976e-03 2.166769e-03 3.203210e-03 4.792972e-03 7.278526e-03 1.100877e-02 1.637906e-02 2.408695e-02 3.521045e-02 5.080674e-02 7.132770e-02 9.620600e-02 1.233616e-01 1.488347e-01 1.680874e-01 1.788656e-01 1.820934e-01
  1.487520e-01 1.449195e-01 1.337963e-01 1.167306e-01 9.620600e-02 7.521719e-02 5.622713e-02 4.060831e-02 2.867732e-02 1.999149e-02 1.377581e-02 9.337993e-03 6.237719e-03 4.168823e-03 2.825635e-03 1.926234e-03 1.292191e-03 8.530570e-04 5.707543e-04 3.939836e-04 2.732014e-04 1.841170e-04 1.233358e-04 8.671416e-05 6.427730e-05 4.796823e-05 3.645203e-05 3.056751e-05 2.897510e-05 3.056751e-05 3.645203e-05 4.796823e-05 6.427730e-05 8.671416e-05 1.233358e-04 1.841170e-04 2.732014e-04 3.939836e-04 5.707543e-04 8.530570e-04 1.292191e-03 1.926234e-03 2.825635e-03 4.168823e-03 6.237719e-03 9.337993e-03 1.377581e-02 1.999149e-02 2.867732e-02 4.060831e-02 5.622713e-02 7.521719e-02 9.620600e-02 1.167306e-01 1.337963e-01 1.449195e-01 1.487520e-01
  1.104757e-01 1.074731e-01 9.895068e-02 8.625813e-02 7.132770e-02 5.622713e-02 4.261742e-02 3.138420e-02 2.264933e-02 1.607376e-02 1.120274e-02 7.668689e-03 5.199746e-03 3.540883e-03 2.434261e-03 1.668343e-03 1.122416e-03 7.473134e-04 5.065721e-04 3.534226e-04 2.463766e-04 1.667257e-04 1.124217e-04 7.955745e-05 5.914920e-05 4.416398e-05 3.379389e-05 2.876360e-05 2.746210e-05 2.876360e-05 3.379389e-05 4.416398e-05 5.914920e-05 7.955745e-05 1.124217e-04 1.667257e-04 2.463766e-04 3.534226e-04 5.065721e-04 7.473134e-04 1.122416e-03 1.668343e-03 2.434261e-03 3.540883e-03 5.199746e-03 7.668689e-03 1.120274e-02 1.607376e-02 2.264933e-02 3.138420e-02 4.261742e-02 5.622713e-02 7.132770e-02 8.625813e-02 9.895068e-02 1.074731e-01 1.104757e-01
  7.736999e-02 7.532932e-02 6.953590e-02 6.091652e-02 5.080674e-02 4.060831e-02 3.138420e-02 2.363794e-02 1.740938e-02 1.253361e-02 8.829149e-03 6.129304e-03 4.241517e-03 2.947377e-03 2.048666e-03 1.407694e-03 9.525407e-04 6.442986e-04 4.445420e-04 3.125470e-04 2.176872e-04 1.478156e-04 1.007405e-04 7.182968e-05 5.344221e-05 4.005878e-05 3.109649e-05 2.687929e-05 2.581947e-05 2.687929e-05 3.109649e-05 4.005878e-05 5.344221e-05 7.182968e-05 1.007405e-04 1.478156e-04 2.176872e-04 3.125470e-04 4.445420e-04 6.442986e-04 9.525407e-04 1.407694e-03 2.048666e-03 2.947377e-03 4.241517e-03 6.129304e-03 8.829149e-03 1.253361e-02 1.740938e-02 2.363794e-02 3.138420e-02 4.060831e-02 5.080674e-02 6.091652e-02 6.953590e-02 7.532932e-02 7.736999e-02
  5.208453e-02 5.079215e-02 4.711677e-02 4.164140e-02 3.521045e-02 2.867732e-02 2.264933e-02 1.740938e-02 1.302496e-02 9.492271e-03 6.781845e-03 4.804361e-03 3.403228e-03 2.406444e-03 1.683115e-03 1.159299e-03 7.939533e-04 5.492753e-04 3.855410e-04 2.708581e-04 1.872598e-04 1.281412e-04 8.916883e-05 6.437307e-05 4.784890e-05 3.610688e-05 2.850359e-05 2.472741e-05 2.370036e-05 2.472741e-05 2.850359e-05 3.610688e-05 4.784890e-05 6.437307e-05 8.916883e-05 1.281412e-04 1.872598e-04 2.708581e-04 3.855410e-04 5.492753e-04 7.939533e-04 1.159299e-03 1.683115e-03 2.406444e-03 3.403228e-03 4.804361e-03 6.781845e-03 9.492271e-03 1.302496e-02 1.740938e-02 2.264933e-02 2.867732e-02 3.521045e-02 4.164140e-02 4.711677e-02 5.079215e-02 5.208453e-02
  3.436503e-02 3.358109e-02 3.135271e-02 2.802786e-02 2.408695e-02 1.999149e-02 1.607376e-02 1.253361e-02 9.492271e-03 7.019417e-03 5.117620e-03 3.713071e-03 2.685807e-03 1.921979e-03 1.350298e-03 9.369446e-04 6.539447e-04 4.633798e-04 3.287173e-04 2.288834e-04 1.571740e-04 1.095483e-04 7.862176e-05 5.742972e-05 4.228227e-05 3.206365e-05 2.585773e-05 2.240337e-05 2.126658e-05 2.240337e-05 2.585773e-05 3.206365e-05 4.228227e-05 5.742972e-05 7.862176e-05 1.095483e-04 1.571740e-04 2.288834e-04 3.287173e-04 4.633798e-04 6.539447e-04 9.369446e-04 1.350298e-03 1.921979e-03 2.685807e-03 3.713071e-03 5.117620e-03 7.019417e-03 9.492271e-03 1.253361e-02 1.607376e-02 1.999149e-02 2.408695e-02 2.802786e-02 3.135271e-02 3.358109e-02 3.436503e-02
  2.264146e-02 2.216911e-02 2.082591e-02 1.881020e-02 1.637906e-02 1.377581e-02 1.120274e-02 8.829149e-03 6.781845e-03 5.117620e-03 3.820633e-03 2.830777e-03 2.076291e-03 1.498152e-03 1.061955e-03 7.485613e-04 5.341634e-04 3.856187e-04 2.743995e-04 1.893614e-04 1.303421e-04 9.332378e-05 6.894696e-05 5.025190e-05 3.625742e-05 2.774725e-05 2.309439e-05 2.021399e-05 1.906262e-05 2.021399e-05 2.309439e-05 2.774725e-05 3.625742e-05 5.025190e-05 6.894696e-05 9.332378e-05 1.303421e-04 1.893614e-04 2.743995e-04 3.856187e-04 5.341634e-04 7.485613e-04 1.061955e-03 1.498152e-03 2.076291e-03 2.830777e-03 3.820633e-03 5.117620e-03 6.781845e-03 8.829149e-03 1.120274e-02 1.377581e-02 1.637906e-02 1.881020e-02 2.082591e-02 2.216911e-02 2.264146e-02
  1.490284e-02 1.461416e-02 1.379000e-02 1.254078e-02 1.100877e-02 9.337993e-03 7.668689e-03 6.129304e-03 4.804361e-03 3.713071e-03 2.830777e-03 2.125397e-03 1.571113e-03 1.144607e-03 8.246545e-04 5.933984e-04 4.311997e-04 3.142939e-04 2.238872e-04 1.548448e-04 1.081827e-04 7.936582e-05 5.938348e-05 4.256691e-05 3.019374e-05 2.360428e-05 2.038348e-05 1.818604e-05 1.713150e-05 1.818604e-05 2.038348e-05 2.360428e-05 3.019374e-05 4.256691e-05 5.938348e-05 7.936582e-05 1.081827e-04 1.548448e-04 2.238872e-04 3.142939e-04 4.311997e-04 5.933984e-04 8.246545e-04 1.144607e-03 1.571113e-03 2.125397e-03 2.830777e-03 3.713071e-03 4.804361e-03 6.129304e-03 7.668689e-03 9.337993e-03 1.100877e-02 1.254078e-02 1.379000e-02 1.461416e-02 1.490284e-02
  9.674046e-03 9.499556e-03 8.997999e-03 8.229641e-03 7.278526e-03 6.237719e-03 5.199746e-03 4.241517e-03 3.403228e-03 2.685807e-03 2.076291e-03 1.571113e-03 1.170956e-03 8.657782e-04 6.364763e-04 4.660674e-04 3.414601e-04 2.492321e-04 1.785860e-04 1.258497e-04 9.008609e-05 6.692307e-05 4.979814e-05 3.536079e-05 2.529553e-05 2.024994e-05 1.785436e-05 1.604648e-05 1.507320e-05 1.604648e-05 1.785436e-05 2.024994e-05 2.529553e-05 3.536079e-05 4.979814e-05 6.692307e-05 9.008609e-05 1.258497e-04 1.785860e-04 2.492321e-04 3.414601e-04 4.660674e-04 6.364763e-04 8.657782e-04 1.170956e-03 1.571113e-03 2.076291e-03 2.685807e-03 3.403228e-03 4.241517e-03 5.199746e-03 6.237719e-03 7.278526e-03 8.229641e-03 8.997999e-03 9.499556e-03 9.674046e-03
  6.214983e-03 6.112780e-03 5.817331e-03 5.361106e-03 4.792972e-03 4.168823e-03 3.540883e-03 2.947377e-03 2.406444e-03 1.921979e-03 1.498152e-03 1.144607e-03 8.657782e-04 6.525789e-04 4.887428e-04 3.617912e-04 2.651496e-04 1.932456e-04 1.402355e-04 1.017171e-04 7.461570e-05 5.552874e-05 4.092151e-05 2.949509e-05 2.188423e-05 1.777152e-05 1.544954e-05 1.364125e-05 1.278399e-05 1.364125e-05 1.544954e-05 1.777152e-05 2.188423e-05 2.949509e-05 4.092151e-05 5.552874e-05 7.461570e-05 1.017171e-04 1.402355e-04 1.932456e-04 2.651496e-04 3.617912e-04 4.887428e-04 6.525789e-04 8.657782e-04 1.144607e-03 1.498152e-03 1.921979e-03 2.406444e-03 2.947377e-03 3.540883e-03 4.168823e-03 4.792972e-03 5.361106e-03 5.817331e-03 6.112780e-03 6.214983e-03
  4.046439e-03 3.985792e-03 3.810967e-03 3.541225e-03 3.203210e-03 2.825635e-03 2.434261e-03 2.048666e-03 1.683115e-03 1.350298e-03 1.061955e-03 8.246545e-04 6.364763e-04 4.887428e-04 3.713173e-04 2.773035e-04 2.037745e-04 1.489644e-04 1.098522e-04 8.192984e-05 6.110914e-05 4.517425e-05 3.316934e-05 2.474825e-05 1.922437e-05 1.561871e-05 1.306688e-05 1.140327e-05 1.087489e-05 1.140327e-05 1.306688e-05 1.561871e-05 1.922437e-05 2.474825e-05 3.316934e-05 4.517425e-05 6.110914e-05 8.192984e-05 1.098522e-04 1.489644e-04 2.037745e-04 2.773035e-04 3.713173e-04 4.887428e-04 6.364763e-04 8.246545e-04 1.061955e-03 1.350298e-03 1.683115e-03 2.048666e-03 2.434261e-03 2.825635e-03 3.203210e-03 3.541225e-03 3.810967e-03 3.985792e-03 4.046439e-03
  2.690883e-03 2.652313e-03 2.542910e-03 2.376492e-03 2.166769e-03 1.926234e-03 1.668343e-03 1.407694e-03 1.159299e-03 9.369446e-04 7.485613e-04 5.933984e-04 4.660674e-04 3.617912e-04 2.773035e-04 2.095289e-04 1.558590e-04 1.151716e-04 8.622549e-05 6.568072e-05 4.951353e-05 3.618772e-05 2.646785e-05 2.037911e-05 1.640653e-05 1.326082e-05 1.093003e-05 9.857396e-06 9.673133e-06 9.857396e-06 1.093003e-05 1.326082e-05 1.640653e-05 2.037911e-05 2.646785e-05 3.618772e-05 4.951353e-05 6.568072e-05 8.622549e-05 1.151716e-04 1.558590e-04 2.095289e-04 2.773035e-04 3.617912e-04 4.660674e-04 5.933984e-04 7.485613e-04 9.369446e-04 1.159299e-03 1.407694e-03 1.668343e-03 1.926234e-03 2.166769e-03 2.376492e-03 2.542910e-03 2.652313e-03 2.690883e-03
  1.785161e-03 1.759669e-03 1.688819e-03 1.582997e-03 1.448976e-03 1.292191e-03 1.122416e-03 9.525407e-04 7.939533e-04 6.539447e-04 5.341634e-04 4.311997e-04 3.414601e-04 2.651496e-04 2.037745e-04 1.558590e-04 1.179013e-04 8.841356e-05 6.715636e-05 5.196779e-05 3.955212e-05 2.876686e-05 2.100310e-05 1.646975e-05 1.357341e-05 1.098639e-05 9.199327e-06 8.757841e-06 8.770095e-06 8.757841e-06 9.199327e-06 1.098639e-05 1.357341e-05 1.646975e-05 2.100310e-05 2.876686e-05 3.955212e-05 5.196779e-05 6.715636e-05 8.841356e-05 1.179013e-04 1.558590e-04 2.037745e-04 2.651496e-04 3.414601e-04 4.311997e-04 5.341634e-04 6.539447e-04 7.939533e-04 9.525407e-04 1.122416e-03 1.292191e-03 1.448976e-03 1.582997e-03 1.688819e-03 1.759669e-03 1.785161e-03
  1.162693e-03 1.146639e-03 1.102363e-03 1.036447e-03 9.521799e-04 8.530570e-04 7.473134e-04 6.442986e-04 5.492753e-04 4.633798e-04 3.856187e-04 3.142939e-04 2.492321e-04 1.932456e-04 1.489644e-04 1.151716e-04 8.841356e-05 6.714325e-05 5.152588e-05 4.025871e-05 3.097099e-05 2.279548e-05 1.687995e-05 1.344261e-05 1.127140e-05 9.241252e-06 7.755466e-06 7.459817e-06 7.524718e-06 7.459817e-06 7.755466e-06 9.241252e-06 1.127140e-05 1.344261e-05 1.687995e-05 2.279548e-05 3.097099e-05 4.025871e-05 5.152588e-05 6.714325e-05 8.841356e-05 1.151716e-04 1.489644e-04 1.932456e-04 2.492321e-04 3.142939e-04 3.856187e-04 4.633798e-04 5.492753e-04 6.442986e-04 7.473134e-04 8.530570e-04 9.521799e-04 1.036447e-03 1.102363e-03 1.146639e-03 1.162693e-03
  7.589914e-04 7.498470e-04 7.240327e-04 6.842389e-04 6.320602e-04 5.707543e-04 5.065721e-04 4.445420e-04 3.855410e-04 3.287173e-04 2.743995e-04 2.238872e-04 1.785860e-04 1.402355e-04 1.098522e-04 8.622549e-05 6.715636e-05 5.152588e-05 3.951971e-05 3.071704e-05 2.377781e-05 1.796704e-05 1.376723e-05 1.123273e-05 9.487175e-06 7.859295e-06 6.515861e-06 5.955798e-06 5.883787e-06 5.955798e-06 6.515861e-06 7.859295e-06 9.487175e-06 1.123273e-05 1.376723e-05 1.796704e-05 2.377781e-05 3.071704e-05 3.951971e-05 5.152588e-05 6.715636e-05 8.622549e-05 1.098522e-04 1.402355e-04 1.785860e-04 2.238872e-04 2.743995e-04 3.287173e-04 3.855410e-04 4.445420e-04 5.065721e-04 5.707543e-04 6.320602e-04 6.842389e-04 7.240327e-04 7.498470e-04 7.589914e-04
  5.075931e-04 5.030525e-04 4.891099e-04 4.653643e-04 4.326005e-04 3.939836e-04 3.534226e-04 3.125470e-04 2.708581e-04 2.288834e-04 1.893614e-04 1.548448e-04 1.258497e-04 1.017171e-04 8.192984e-05 6.568072e-05 5.196779e-05 4.025871e-05 3.071704e-05 2.350464e-05 1.816937e-05 1.414769e-05 1.126338e-05 9.376863e-06 7.914896e-06 6.551106e-06 5.416978e-06 4.730887e-06 4.530498e-06 4.730887e-06 5.416978e-06 6.551106e-06 7.914896e-06 9.376863e-06 1.126338e-05 1.414769e-05 1.816937e-05 2.350464e-05 3.071704e-05 4.025871e-05 5.196779e-05 6.568072e-05 8.192984e-05 1.017171e-04 1.258497e-04 1.548448e-04 1.893614e-04 2.288834e-04 2.708581e-04 3.125470e-04 3.534226e-04 3.939836e-04 4.326005e-04 4.653643e-04 4.891099e-04 5.030525e-04 5.075931e-04
  3.430677e-04 3.410768e-04 3.337888e-04 3.192971e-04 2.981677e-04 2.732014e-04 2.463766e-04 2.176872e-04 1.872598e-04 1.571740e-04 1.303421e-04 1.081827e-04 9.008609e-05 7.461570e-05 6.110914e-05 4.951353e-05 3.955212e-05 3.097099e-05 2.377781e-05 1.816937e-05 1.414440e-05 1.136087e-05 9.298446e-06 7.643086e-06 6.322586e-06 5.272668e-06 4.476947e-06 3.948225e-06 3.754488e-06 3.948225e-06 4.476947e-06 5.272668e-06 6.322586e-06 7.643086e-06 9.298446e-06 1.136087e-05 1.414440e-05 1.816937e-05 2.377781e-05 3.097099e-05 3.955212e-05 4.951353e-05 6.110914e-05 7.461570e-05 9.008609e-05 1.081827e-04 1.303421e-04 1.571740e-04 1.872598e-04 2.176872e-04 2.463766e-04 2.732014e-04 2.981677e-04 3.192971e-04 3.337888e-04 3.410768e-04 3.430677e-04
  2.295714e-04 2.284746e-04 2.239163e-04 2.142332e-04 2.002358e-04 1.841170e-04 1.667257e-04 1.478156e-04 1.281412e-04 1.095483e-04 9.332378e-05 7.936582e-05 6.692307e-05 5.552874e-05 4.517425e-05 3.618772e-05 2.876686e-05 2.279548e-05 1.796704e-05 1.414769e-05 1.136087e-05 9.370446e-06 7.764848e-06 6.250082e-06 4.997726e-06 4.198870e-06 3.722962e-06 3.422842e-06 3.300615e-06 3.422842e-06 3.722962e-06 4.198870e-06 4.997726e-06 6.250082e-06 7.764848e-06 9.370446e-06 1.136087e-05 1.414769e-05 1.796704e-05 2.279548e-05 2.876686e-05 3.618772e-05 4.517425e-05 5.552874e-05 6.692307e-05 7.936582e-05 9.332378e-05 1.095483e-04 1.281412e-04 1.478156e-04 1.667257e-04 1.841170e-04 2.002358e-04 2.142332e-04 2.239163e-04 2.284746e-04 2.295714e-04
  1.546470e-04 1.535929e-04 1.498026e-04 1.427646e-04 1.335055e-04 1.233358e-04 1.124217e-04 1.007405e-04 8.916883e-05 7.862176e-05 6.894696e-05 5.938348e-05 4.979814e-05 4.092151e-05 3.316934e-05 2.646785e-05 2.100310e-05 1.687995e-05 1.376723e-05 1.126338e-05 9.298446e-06 7.764848e-06 6.441773e-06 5.211158e-06 4.164530e-06 3.497875e-06 3.134484e-06 2.920269e-06 2.839548e-06 2.920269e-06 3.134484e-06 3.497875e-06 4.164530e-06 5.211158e-06 6.441773e-06 7.764848e-06 9.298446e-06 1.126338e-05 1.376723e-05 1.687995e-05 2.100310e-05 2.646785e-05 3.316934e-05 4.092151e-05 4.979814e-05 5.938348e-05 6.894696e-05 7.862176e-05 8.916883e-05 1.007405e-04 1.124217e-04 1.233358e-04 1.335055e-04 1.427646e-04 1.498026e-04 1.535929e-04 1.546470e-04
  1.078233e-04 1.067399e-04 1.035501e-04 9.872443e-05 9.301900e-05 8.671416e-05 7.955745e-05 7.182968e-05 6.437307e-05 5.742972e-05 5.025190e-05 4.256691e-05 3.536079e-05 2.949509e-05 2.474825e-05 2.037911e-05 1.646975e-05 1.344261e-05 1.123273e-05 9.376863e-06 7.643086e-06 6.250082e-06 5.211158e-06 4.383925e-06 3.676931e-06 3.111282e-06 2.701074e-06 2.442752e-06 2.359179e-06 2.442752e-06 2.701074e-06 3.111282e-06 3.676931e-06 4.383925e-06 5.211158e-06 6.250082e-06 7.643086e-06 9.376863e-06 1.123273e-05 1.344261e-05 1.646975e-05 2.037911e-05 2.474825e-05 2.949509e-05 3.536079e-05 4.256691e-05 5.025190e-05 5.742972e-05 6.437307e-05 7.182968e-05 7.955745e-05 8.671416e-05 9.301900e-05 9.872443e-05 1.035501e-04 1.067399e-04 1.078233e-04
  7.715836e-05 7.629738e-05 7.412049e-05 7.137470e-05 6.824964e-05 6.427730e-05 5.914920e-05 5.344221e-05 4.784890e-05 4.228227e-05 3.625742e-05 3.019374e-05 2.529553e-05 2.188423e-05 1.922437e-05 1.640653e-05 1.357341e-05 1.127140e-05 9.487175e-06 7.914896e-06 6.322586e-06 4.997726e-06 4.164530e-06 3.676931e-06 3.284352e-06 2.846899e-06 2.432868e-06 2.151329e-06 2.055794e-06 2.151329e-06 2.432868e-06 2.846899e-06 3.284352e-06 3.676931e-06 4.164530e-06 4.997726e-06 6.322586e-06 7.914896e-06 9.487175e-06 1.127140e-05 1.357341e-05 1.640653e-05 1.922437e-05 2.188423e-05 2.529553e-05 3.019374e-05 3.625742e-05 4.228227e-05 4.784890e-05 5.344221e-05 5.914920e-05 6.427730e-05 6.824964e-05 7.137470e-05 7.412049e-05 7.629738e-05 7.715836e-05
  5.599058e-05 5.542887e-05 5.412934e-05 5.263199e-05 5.077615e-05 4.796823e-05 4.416398e-05 4.005878e-05 3.610688e-05 3.206365e-05 2.774725e-05 2.360428e-05 2.024994e-05 1.777152e-05 1.561871e-05 1.326082e-05 1.098639e-05 9.241252e-06 7.859295e-06 6.551106e-06 5.272668e-06 4.198870e-06 3.497875e-06 3.111282e-06 2.846899e-06 2.571395e-06 2.271878e-06 2.035615e-06 1.950232e-06 2.035615e-06 2.271878e-06 2.571395e-06 2.846899e-06 3.111282e-06 3.497875e-06 4.198870e-06 5.272668e-06 6.551106e-06 7.859295e-06 9.241252e-06 1.098639e-05 1.326082e-05 1.561871e-05 1.777152e-05 2.024994e-05 2.360428e-05 2.774725e-05 3.206365e-05 3.610688e-05 4.005878e-05 4.416398e-05 4.796823e-05 5.077615e-05 5.263199e-05 5.412934e-05 5.542887e-05 5.599058e-05
  4.298331e-05 4.256603e-05 4.156897e-05 4.031291e-05 3.868401e-05 3.645203e-05 3.379389e-05 3.109649e-05 2.850359e-05 2.585773e-05 2.309439e-05 2.038348e-05 1.785436e-05 1.544954e-05 1.306688e-05 1.093003e-05 9.199327e-06 7.755466e-06 6.515861e-06 5.416978e-06 4.476947e-06 3.722962e-06 3.134484e-06 2.701074e-06 2.432868e-06 2.271878e-06 2.105324e-06 1.997492e-06 1.983047e-06 1.997492e-06 2.105324e-06 2.271878e-06 2.432868e-06 2.701074e-06 3.134484e-06 3.722962e-06 4.476947e-06 5.416978e-06 6.515861e-06 7.755466e-06 9.199327e-06 1.093003e-05 1.306688e-05 1.544954e-05 1.785436e-05 2.038348e-05 2.309439e-05 2.585773e-05 2.850359e-05 3.109649e-05 3.379389e-05 3.645203e-05 3.868401e-05 4.031291e-05 4.156897e-05 4.256603e-05 4.298331e-05
  3.696474e-05 3.655180e-05 3.549022e-05 3.405020e-05 3.236545e-05 3.056751e-05 2.876360e-05 2.687929e-05 2.472741e-05 2.240337e-05 2.021399e-05 1.818604e-05 1.604648e-05 1.364125e-05 1.140327e-05 9.857396e-06 8.757841e-06 7.459817e-06 5.955798e-06 4.730887e-06 3.948225e-06 3.422842e-06 2.920269e-06 2.442752e-06 2.151329e-06 2.035615e-06 1.997492e-06 1.993039e-06 1.996174e-06 1.993039e-06 1.997492e-06 2.035615e-06 2.151329e-06 2.442752e-06 2.920269e-06 3.422842e-06 3.948225e-06 4.730887e-06 5.955798e-06 7.459817e-06 8.757841e-06 9.857396e-06 1.140327e-05 1.364125e-05 1.604648e-05 1.818604e-05 2.021399e-05 2.240337e-05 2.472741e-05 2.687929e-05 2.876360e-05 3.056751e-05 3.236545e-05 3.405020e-05 3.549022e-05 3.655180e-05 3.696474e-05
  3.543818e-05 3.500525e-05 3.386564e-05 3.230664e-05 3.059507e-05 2.897510e-05 2.746210e-05 2.581947e-05 2.370036e-05 2.126658e-05 1.906262e-05 1.713150e-05 1.507320e-05 1.278399e-05 1.087489e-05 9.673133e-06 8.770095e-06 7.524718e-06 5.883787e-06 4.530498e-06 3.754488e-06 3.300615e-06 2.839548e-06 2.359179e-06 2.055794e-06 1.950232e-06 1.983047e-06 1.996174e-06 1.966701e-06 1.996174e-06 1.983047e-06 1.950232e-06 2.055794e-06 2.359179e-06 2.839548e-06 3.300615e-06 3.754488e-06 4.530498e-06 5.883787e-06 7.524718e-06 8.770095e-06 9.673133e-06 1.087489e-05 1.278399e-05 1.507320e-05 1.713150e-05 1.906262e-05 2.126658e-05 2.370036e-05 2.581947e-05 2.746210e-05 2.897510e-05 3.059507e-05 3.230664e-05 3.386564e-05 3.500525e-05 3.543818e-05
  3.696474e-05 3.655180e-05 3.549022e-05 3.405020e-05 3.236545e-05 3.056751e-05 2.876360e-05 2.687929e-05 2.472741e-05 2.240337e-05 2.021399e-05 1.818604e-05 1.604648e-05 1.364125e-05 1.140327e-05 9.857396e-06 8.757841e-06 7.459817e-06 5.955798e-06 4.730887e-06 3.948225e-06 3.422842e-06 2.920269e-06 2.442752e-06 2.151329e-06 2.035615e-06 1.997492e-06 1.993039e-06 1.996174e-06 1.993039e-06 1.997492e-06 2.035615e-06 2.151329e-06 2.442752e-06 2.920269e-06 3.422842e-06 3.948225e-06 4.730887e-06 5.955798e-06 7.459817e-06 8.757841e-06 9.857396e-06 1.140327e-05 1.364125e-05 1.604648e-05 1.818604e-05 2.021399e-05 2.240337e-05 2.472741e-05 2.687929e-05 2.876360e-05 3.056751e-05 3.236545e-05 3.405020e-05 3.549022e-05 3.655180e-05 3.696474e-05
  4.298331e-05 4.256603e-05 4.156897e-05 4.031291e-05 3.868401e-05 3.645203e-05 3.379389e-05 3.109649e-05 2.850359e-05 2.585773e-05 2.309439e-05 2.038348e-05 1.785436e-05 1.544954e-05 1.306688e-05 1.093003e-05 9.199327e-06 7.755466e-06 6.515861e-06 5.416978e-06 4.476947e-06 3.722962e-06 3.134484e-06 2.701074e-06 2.432868e-06 2.271878e-06 2.105324e-06 1.997492e-06 1.983047e-06 1.997492e-06 2.105324e-06 2.271878e-06 2.432868e-06 2.701074e-06 3.134484e-06 3.722962e-06 4.476947e-06 5.416978e-06 6.515861e-06 7.755466e-06 9.199327e-06 1.093003e-05 1.306688e-05 1.544954e-05 1.785436e-05 2.038348e-05 2.309439e-05 2.585773e-05 2.850359e-05 3.109649e-05 3.379389e-05 3.645203e-05 3.868401e-05 4.031291e-05 4.156897e-05 4.256603e-05 4.298331e-05
  5.599058e-05 5.542887e-05 5.412934e-05 5.263199e-05 5.077615e-05 4.796823e-05 4.416398e-05 4.005878e-05 3.610688e-05 3.206365e-05 2.774725e-05 2.360428e-05 2.024994e-05 1.777152e-05 1.561871e-05 1.326082e-05 1.098639e-05 9.241252e-06 7.859295e-06 6.551106e-06 5.272668e-06 4.198870e-06 3.497875e-06 3.111282e-06 2.846899e-06 2.571395e-06 2.271878e-06 2.035615e-06 1.950232e-06 2.035615e-06 2.271878e-06 2.571395e-06 2.846899e-06 3.111282e-06 3.497875e-06 4.198870e-06 5.272668e-06 6.551106e-06 7.859295e-06 9.241252e-06 1.098639e-05 1.326082e-05 1.561871e-05 1.777152e-05 2.024994e-05 2.360428e-05 2.774725e-05 3.206365e-05 3.610688e-05 4.005878e-05 4.416398e-05 4.796823e-05 5.077615e-05 5.263199e-05 5.412934e-05 5.542887e-05 5.599058e-05
  7.715836e-05 7.629738e-05 7.412049e-05 7.137470e-05 6.824964e-05 6.427730e-05 5.914920e-05 5.344221e-05 4.784890e-05 4.228227e-05 3.625742e-05 3.019374e-05 2.529553e-05 2.188423e-05 1.922437e-05 1.640653e-05 1.357341e-05 1.127140e-05 9.487175e-06 7.914896e-06 6.322586e-06 4.997726e-06 4.164530e-06 3.676931e-06 3.284352e-06 2.846899e-06 2.432868e-06 2.151329e-06 2.055794e-06 2.151329e-06 2.432868e-06 2.846899e-06 3.284352e-06 3.676931e-06 4.164530e-06 4.997726e-06 6.322586e-06 7.914896e-06 9.487175e-06 1.127140e-05 1.357341e-05 1.640653e-05 1.922437e-05 2.188423e-05 2.529553e-05 3.019374e-05 3.625742e-05 4.228227e-05 4.784890e-05 5.344221e-05 5.914920e-05 6.427730e-05 6.824964e-05 7.137470e-05 7.412049e-05 7.629738e-05 7.715836e-05
  1.078233e-04 1.067399e-04 1.035501e-04 9.872443e-05 9.301900e-05 8.671416e-05 7.955745e-05 7.182968e-05 6.437307e-05 5.742972e-05 5.025190e-05 4.256691e-05 3.536079e-05 2.949509e-05 2.474825e-05 2.037911e-05 1.646975e-05 1.344261e-05 1.123273e-05 9.376863e-06 7.643086e-06 6.250082e-06 5.211158e-06 4.383925e-06 3.676931e-06 3.111282e-06 2.701074e-06 2.442752e-06 2.359179e-06 2.442752e-06 2.701074e-06 3.111282e-06 3.676931e-06 4.383925e-06 5.211158e-06 6.250082e-06 7.643086e-06 9.376863e-06 1.123273e-05 1.344261e-05 1.646975e-05 2.037911e-05 2.474825e-05 2.949509e-05 3.536079e-05 4.256691e-05 5.025190e-05 5.742972e-05 6.437307e-05 7.182968e-05 7.955745e-05 8.671416e-05 9.301900e-05 9.872443e-05 1.035501e-04 1.067399e-04 1.078233e-04
  1.546470e-04 1.535929e-04 1.498026e-04 1.427646e-04 1.335055e-04 1.233358e-04 1.124217e-04 1.007405e-04 8.916883e-05 7.862176e-05 6.894696e-05 5.938348e-05 4.979814e-05 4.092151e-05 3.316934e-05 2.646785e-05 2.100310e-05 1.687995e-05 1.376723e-05 1.126338e-05 9.298446e-06 7.764848e-06 6.441773e-06 5.211158e-06 4.164530e-06 3.497875e-06 3.134484e-06 2.920269e-06 2.839548e-06 2.920269e-06 3.134484e-06 3.497875e-06 4.164530e-06 5.211158e-06 6.441773e-06 7.764848e-06 9.298446e-06 1.126338e-05 1.376723e-05 1.687995e-05 2.100310e-05 2.646785e-05 3.316934e-05 4.092151e-05 4.979814e-05 5.938348e-05 6.894696e-05 7.862176e-05 8.916883e-05 1.007405e-04 1.124217e-04 1.233358e-04 1.335055e-04 1.427646e-04 1.498026e-04 1.535929e-04 1.546470e-04
  2.295714e-04 2.284746e-04 2.239163e-04 2.142332e-04 2.002358e-04 1.841170e-04 1.667257e-04 1.478156e-04 1.281412e-04 1.095483e-04 9.332378e-05 7.936582e-05 6.692307e-05 5.552874e-05 4.517425e-05 3.618772e-05 2.876686e-05 2.279548e-05 1.796704e-05 1.414769e-05 1.136087e-05 9.370446e-06 7.764848e-06 6.250082e-06 4.997726e-06 4.198870e-06 3.722962e-06 3.422842e-06 3.300615e-06 3.422842e-06 3.722962e-06 4.198870e-06 4.997726e-06 6.250082e-06 7.764848e-06 9.370446e-06 1.136087e-05 1.414769e-05 1.796704e-05 2.279548e-05 2.876686e-05 3.618772e-05 4.517425e-05 5.552874e-05 6.692307e-05 7.936582e-05 9.332378e-05 1.095483e-04 1.281412e-04 1.478156e-04 1.667257e-04 1.841170e-04 2.002358e-04 2.142332e-04 2.239163e-04 2.284746e-04 2.295714e-04
  3.430677e-04 3.410768e-04 3.337888e-04 3.192971e-04 2.981677e-04 2.732014e-04 2.463766e-04 2.176872e-04 1.872598e-04 1.571740e-04 1.303421e-04 1.081827e-04 9.008609e-05 7.461570e-05 6.110914e-05 4.951353e-05 3.955212e-05 3.097099e-05 2.377781e-05 1.816937e-05 1.414440e-05 1.136087e-05 9.298446e-06 7.643086e-06 6.322586e-06 5.272668e-06 4.476947e-06 3.948225e-06 3.754488e-06 3.948225e-06 4.476947e-06 5.272668e-06 6.322586e-06 7.643086e-06 9.298446e-06 1.136087e-05 1.414440e-05 1.816937e-05 2.377781e-05 3.097099e-05 3.955212e-05 4.951353e-05 6.110914e-05 7.461570e-05 9.008609e-05 1.081827e-04 1.303421e-04 1.571740e-04 1.872598e-04 2.176872e-04 2.463766e-04 2.732014e-04 2.981677e-04 3.192971e-04 3.337888e-04 3.410768e-04 3.430677e-04
  5.075931e-04 5.030525e-04 4.891099e-04 4.653643e-04 4.326005e-04 3.939836e-04 3.534226e-04 3.125470e-04 2.708581e-04 2.288834e-04 1.893614e-04 1.548448e-04 1.258497e-04 1.017171e-04 8.192984e-05 6.568072e-05 5.196779e-05 4.025871e-05 3.071704e-05 2.350464e-05 1.816937e-05 1.414769e-05 1.126338e-05 9.376863e-06 7.914896e-06 6.551106e-06 5.416978e-06 4.730887e-06 4.530498e-06 4.730887e-06 5.416978e-06 6.551106e-06 7.914896e-06 9.376863e-06 1.126338e-05 1.414769e-05 1.816937e-05 2.350464e-05 3.071704e-05 4.025871e-05 5.196779e-05 6.568072e-05 8.192984e-05 1.017171e-04 1.258497e-04 1.548448e-04 1.893614e-04 2.288834e-04 2.708581e-04 3.125470e-04 3.534226e-04 3.939836e-04 4.326005e-04 4.653643e-04 4.891099e-04 5.030525e-04 5.075931e-04
  7.589914e-04 7.498470e-04 7.240327e-04 6.842389e-04 6.320602e-04 5.707543e-04 5.065721e-04 4.445420e-04 3.855410e-04 3.287173e-04 2.743995e-04 2.238872e-04 1.785860e-04 1.402355e-04 1.098522e-04 8.622549e-05 6.715636e-05 5.152588e-05 3.951971e-05 3.071704e-05 2.377781e-05 1.796704e-05 1.376723e-05 1.123273e-05 9.487175e-06 7.859295e-06 6.515861e-06 5.955798e-06 5.883787e-06 5.955798e-06 6.515861e-06 7.859295e-06 9.487175e-06 1.123273e-05 1.376723e-05 1.796704e-05 2.377781e-05 3.071704e-05 3.951971e-05 5.152588e-05 6.715636e-05 8.622549e-05 1.098522e-04 1.402355e-04 1.785860e-04 2.238872e-04 2.743995e-04 3.287173e-04 3.855410e-04 4.445420e-04 5.065721e-04 5.707543e-04 6.320602e-04 6.842389e-04 7.240327e-04 7.498470e-04 7.589914e-04