
*************** JDFTx 1.4.2  ***************

Start date and time: Thu May  9 21:45:42 2019
Executable jdftx with command-line: -i amoniaini.in
Running on hosts (process indices):  Juans-MBP.lan1 (0)
Divided in process groups (process indices):  0 (0)
Resource initialization completed at t[s]:      0.00
Run totals: 1 processes, 12 threads, 0 GPUs


Input parsed successfully to the following command list (including defaults):

basis kpoint-dependent
coords-type Cartesian
core-overlap-check vector
coulomb-interaction Periodic
davidson-band-ratio 1.1
dump End IonicPositions
dump-name $INPUT.$VAR
elec-cutoff 20 100
elec-eigen-algo Davidson
elec-ex-corr gga-PBE
electronic-minimize  \
	dirUpdateScheme      FletcherReeves \
	linminMethod         DirUpdateRecommended \
	nIterations          100 \
	history              15 \
	knormThreshold       0 \
	energyDiffThreshold  1e-08 \
	nEnergyDiff          2 \
	alphaTstart          1 \
	alphaTmin            1e-10 \
	updateTestStepSize   yes \
	alphaTreduceFactor   0.1 \
	alphaTincreaseFactor 3 \
	nAlphaAdjustMax      3 \
	wolfeEnergy          0.0001 \
	wolfeGradient        0.9 \
	fdTest               no
exchange-regularization WignerSeitzTruncated
fluid None
fluid-ex-corr lda-TF lda-PZ
fluid-gummel-loop 10 1.000000e-05
fluid-minimize  \
	dirUpdateScheme      PolakRibiere \
	linminMethod         DirUpdateRecommended \
	nIterations          100 \
	history              15 \
	knormThreshold       0 \
	energyDiffThreshold  0 \
	nEnergyDiff          2 \
	alphaTstart          1 \
	alphaTmin            1e-10 \
	updateTestStepSize   yes \
	alphaTreduceFactor   0.1 \
	alphaTincreaseFactor 3 \
	nAlphaAdjustMax      3 \
	wolfeEnergy          0.0001 \
	wolfeGradient        0.9 \
	fdTest               no
fluid-solvent H2O 55.338 ScalarEOS \
	epsBulk 78.4 \
	pMol 0.92466 \
	epsInf 1.77 \
	Pvap 1.06736e-10 \
	sigmaBulk 4.62e-05 \
	Rvdw 2.61727 \
	Res 1.42
forces-output-coords Positions
ion N  -0.343260000000000  -0.484880000000000   0.000000000000000 0
ion H   0.343260000000000   1.457150000000000   0.000000000000000 1
ion H   0.343260000000000  -1.457150000000000   1.681860000000000 1
ion H   0.343260000000000  -1.457150000000000  -1.681860000000000 1
ion-species GBRV/$ID_pbe.uspp
ion-width 0
ionic-minimize  \
	dirUpdateScheme      L-BFGS \
	linminMethod         DirUpdateRecommended \
	nIterations          20 \
	history              15 \
	knormThreshold       0.0001 \
	energyDiffThreshold  1e-06 \
	nEnergyDiff          2 \
	alphaTstart          1 \
	alphaTmin            1e-10 \
	updateTestStepSize   yes \
	alphaTreduceFactor   0.1 \
	alphaTincreaseFactor 3 \
	nAlphaAdjustMax      3 \
	wolfeEnergy          0.0001 \
	wolfeGradient        0.9 \
	fdTest               no
kpoint   0.000000000000   0.000000000000   0.000000000000  1.00000000000000
kpoint-folding 1 1 1 
latt-move-scale 1 1 1
latt-scale 1 1 1 
lattice  \
	  15.686500000000001    0.000000000000000    0.000000000000000  \
	   0.000000000000000   17.914300000000001    0.000000000000000  \
	   0.000000000000000    0.000000000000000   18.363700000000001 
lattice-minimize  \
	dirUpdateScheme      L-BFGS \
	linminMethod         DirUpdateRecommended \
	nIterations          0 \
	history              15 \
	knormThreshold       0 \
	energyDiffThreshold  1e-06 \
	nEnergyDiff          2 \
	alphaTstart          1 \
	alphaTmin            1e-10 \
	updateTestStepSize   yes \
	alphaTreduceFactor   0.1 \
	alphaTincreaseFactor 3 \
	nAlphaAdjustMax      3 \
	wolfeEnergy          0.0001 \
	wolfeGradient        0.9 \
	fdTest               no
lcao-params -1 1e-06 0.001
pcm-variant GLSSA13
spintype no-spin
subspace-rotation-factor 1 yes
symmetries automatic
symmetry-threshold 0.0001



---------- Setting up symmetries ----------

Found 8 point-group symmetries of the bravais lattice
Found 2 space-group symmetries with basis
Applied RMS atom displacement 0 bohrs to make symmetries exact.

---------- Initializing the Grid ----------
R = 
[    15.6865          0          0  ]
[          0    17.9143          0  ]
[          0          0    18.3637  ]
unit cell volume = 5160.43
G =
[   0.400547          0          0  ]
[          0   0.350736          0  ]
[          0          0   0.342152  ]
Minimum fftbox size, Smin = [  72  84  84  ]
Chosen fftbox size, S = [  72  84  84  ]

---------- Initializing tighter grid for wavefunction operations ----------
R = 
[    15.6865          0          0  ]
[          0    17.9143          0  ]
[          0          0    18.3637  ]
unit cell volume = 5160.43
G =
[   0.400547          0          0  ]
[          0   0.350736          0  ]
[          0          0   0.342152  ]
Minimum fftbox size, Smin = [  64  76  76  ]
Chosen fftbox size, S = [  64  80  80  ]

---------- Exchange Correlation functional ----------
Initalized PBE GGA exchange.
Initalized PBE GGA correlation.

---------- Setting up pseudopotentials ----------
Width of ionic core gaussian charges (only for fluid interactions / plotting) set to 0

Reading pseudopotential file '/Users/juanmendezvalderrama/Documents/JDFTX/build/pseudopotentials/GBRV/n_pbe.uspp':
  Title: N.  Created by USPP 7.3.6 on 3-2-2014
  Reference state energy: -9.763716.  5 valence electrons in orbitals:
    |200>  occupation: 2  eigenvalue: -0.681964
    |210>  occupation: 3  eigenvalue: -0.260726
  lMax: 1  lLocal: 2  QijEcut: 6
  4 projectors sampled on a log grid with 491 points:
    l: 0  eig: -0.681964  rCut: 1.15
    l: 0  eig: 0.000000  rCut: 1.15
    l: 1  eig: -0.260729  rCut: 1.2
    l: 1  eig: 0.500000  rCut: 1.2
  Partial core density with radius 0.8
  Transforming core density to a uniform radial grid of dG=0.02 with 1262 points.
  Transforming local potential to a uniform radial grid of dG=0.02 with 1262 points.
  Transforming nonlocal projectors to a uniform radial grid of dG=0.02 with 432 points.
  Transforming density augmentations to a uniform radial grid of dG=0.02 with 1262 points.
  Transforming atomic orbitals to a uniform radial grid of dG=0.02 with 432 points.
  Core radius for overlap checks: 1.20 bohrs.

Reading pseudopotential file '/Users/juanmendezvalderrama/Documents/JDFTX/build/pseudopotentials/GBRV/h_pbe.uspp':
  Title: H.  Created by USPP 7.3.6 on 2-4-15
  Reference state energy: -0.458849.  1 valence electrons in orbitals:
    |100>  occupation: 1  eigenvalue: -0.238595
  lMax: 0  lLocal: 1  QijEcut: 6
  2 projectors sampled on a log grid with 395 points:
    l: 0  eig: -0.238595  rCut: 1.2
    l: 0  eig: 1.000000  rCut: 1.2
  Transforming local potential to a uniform radial grid of dG=0.02 with 1262 points.
  Transforming nonlocal projectors to a uniform radial grid of dG=0.02 with 432 points.
  Transforming density augmentations to a uniform radial grid of dG=0.02 with 1262 points.
  Transforming atomic orbitals to a uniform radial grid of dG=0.02 with 432 points.
  Core radius for overlap checks: 1.20 bohrs.

Initialized 2 species with 4 total atoms.

Folded 1 k-points by 1x1x1 to 1 k-points.

---------- Setting up k-points, bands, fillings ----------
No reducable k-points. 
Computing the number of bands and number of electrons
Calculating initial fillings.
nElectrons:   8.000000   nBands: 4   nStates: 1

----- Setting up reduced wavefunction bases (one per k-point) -----
average nbasis = 22011.000 , ideal nbasis = 22045.760

---------- Setting up ewald sum ----------
Optimum gaussian width for ewald sums = 5.471782 bohr.
Real space sum over 891 unit cells with max indices [  5  4  4  ]
Reciprocal space sum over 2535 terms with max indices [  6  6  7  ]

---------- Allocating electronic variables ----------
Initializing wave functions:  linear combination of atomic orbitals
N pseudo-atom occupations:   s ( 2 )  p ( 3 )
H pseudo-atom occupations:   s ( 1 )
	FillingsUpdate:  mu: -0.000000000  nElectrons: 8.000000
LCAOMinimize: Iter:   0  Etot: -11.5462752748663249  |grad|_K:  6.980e-02  alpha:  1.000e+00
	FillingsUpdate:  mu: -0.005731150  nElectrons: 8.000000
LCAOMinimize: Iter:   1  Etot: -11.6147556621397108  |grad|_K:  3.710e-03  alpha:  4.304e-01  linmin:  5.993e-02  cgtest: -3.809e-02  t[s]:      4.39
	FillingsUpdate:  mu: -0.003704918  nElectrons: 8.000000
LCAOMinimize: Iter:   2  Etot: -11.6151275199907431  |grad|_K:  2.349e-04  alpha:  8.755e-01  linmin:  1.794e-01  cgtest: -8.790e-01  t[s]:      4.80
	FillingsUpdate:  mu: -0.003771675  nElectrons: 8.000000
LCAOMinimize: Iter:   3  Etot: -11.6151276178793097  |grad|_K:  2.146e-04  alpha:  3.218e-01  linmin: -3.853e-05  cgtest:  9.413e-01  t[s]:      5.19
LCAOMinimize: Encountered beta<0, resetting CG.
LCAOMinimize: None of the convergence criteria satisfied after 3 iterations.


---- Citations for features of the code used in this run ----

   Software package:
      R. Sundararaman, K. Letchworth-Weaver, K.A. Schwarz, D. Gunceler, Y. Ozhabes and T.A. Arias, 'JDFTx: software for joint density-functional theory', SoftwareX 6, 278 (2017)

   gga-PBE exchange-correlation functional:
      J.P. Perdew, K. Burke and M. Ernzerhof, Phys. Rev. Lett. 77, 3865 (1996)

   Pseudopotentials:
      KF Garrity, JW Bennett, KM Rabe and D Vanderbilt, Comput. Mater. Sci. 81, 446 (2014)

   Total energy minimization:
      T.A. Arias, M.C. Payne and J.D. Joannopoulos, Phys. Rev. Lett. 69, 1077 (1992)

This list may not be complete. Please suggest additional citations or
report any other bugs at https://github.com/shankar1729/jdftx/issues

Initialization completed successfully at t[s]:      5.20


-------- Electronic minimization -----------
ElecMinimize: Iter:   0  Etot: -11.615127617879295  |grad|_K:  1.330e-03  alpha:  1.000e+00
ElecMinimize: Iter:   1  Etot: -11.742098699596795  |grad|_K:  3.527e-04  alpha:  8.157e-01  linmin: -3.008e-03  t[s]:      5.93
ElecMinimize: Iter:   2  Etot: -11.754088447913357  |grad|_K:  1.790e-04  alpha:  1.093e+00  linmin: -4.665e-03  t[s]:      6.27
ElecMinimize: Iter:   3  Etot: -11.756791432286123  |grad|_K:  8.980e-05  alpha:  9.551e-01  linmin: -1.352e-04  t[s]:      6.60
ElecMinimize: Iter:   4  Etot: -11.757473858896098  |grad|_K:  4.177e-05  alpha:  9.610e-01  linmin:  7.303e-04  t[s]:      6.95
ElecMinimize: Iter:   5  Etot: -11.757630065143296  |grad|_K:  2.048e-05  alpha:  1.018e+00  linmin:  1.394e-03  t[s]:      7.28
ElecMinimize: Iter:   6  Etot: -11.757671338882503  |grad|_K:  1.083e-05  alpha:  1.119e+00  linmin: -4.290e-04  t[s]:      7.63
ElecMinimize: Iter:   7  Etot: -11.757681516310519  |grad|_K:  5.440e-06  alpha:  9.860e-01  linmin:  1.725e-04  t[s]:      7.97
ElecMinimize: Iter:   8  Etot: -11.757683937359344  |grad|_K:  2.703e-06  alpha:  9.292e-01  linmin: -1.405e-04  t[s]:      8.31
ElecMinimize: Iter:   9  Etot: -11.757684547145335  |grad|_K:  1.343e-06  alpha:  9.481e-01  linmin: -2.345e-05  t[s]:      8.65
ElecMinimize: Iter:  10  Etot: -11.757684722802800  |grad|_K:  7.208e-07  alpha:  1.106e+00  linmin: -1.106e-04  t[s]:      9.00
ElecMinimize: Iter:  11  Etot: -11.757684769119656  |grad|_K:  3.500e-07  alpha:  1.013e+00  linmin: -1.855e-05  t[s]:      9.33
ElecMinimize: Iter:  12  Etot: -11.757684780405771  |grad|_K:  1.888e-07  alpha:  1.046e+00  linmin: -2.433e-05  t[s]:      9.67
ElecMinimize: Iter:  13  Etot: -11.757684783813465  |grad|_K:  1.064e-07  alpha:  1.086e+00  linmin: -1.418e-05  t[s]:     10.01
ElecMinimize: Iter:  14  Etot: -11.757684784921334  |grad|_K:  6.582e-08  alpha:  1.111e+00  linmin:  3.471e-05  t[s]:     10.35
ElecMinimize: Converged (|Delta Etot|<1.000000e-08 for 2 iters).
Setting wave functions to eigenvectors of Hamiltonian

# Ionic positions in cartesian coordinates:
ion N  -0.343260000000000  -0.484880000000000   0.000000000000000 0
ion H   0.343260000000000   1.457150000000000   0.000000000000000 1
ion H   0.343260000000000  -1.457150000000000   1.681860000000000 1
ion H   0.343260000000000  -1.457150000000000  -1.681860000000000 1


# Forces in Cartesian coordinates:
force N   0.026788344693841  -0.000358392095507   0.000000000000000 0
force H  -0.008858525463188  -0.044854045886424   0.000000000000000 1
force H  -0.008942710799244   0.022571503362450  -0.038913367428532 1
force H  -0.008942710799244   0.022571503362450   0.038913367428532 1

# Energy components:
   Eewald =        2.9894734303884567
       EH =       12.2884052494525928
     Eloc =      -31.6137220002797790
      Enl =        1.4582191443815686
      Exc =       -3.6781628780730822
 Exc_core =        0.0886158167782322
       KE =        6.7094864524306734
-------------------------------------
     Etot =      -11.7576847849213344

IonicMinimize: Iter:   0  Etot: -11.757684784921334  |grad|_K:  2.645e-02  t[s]:     10.57

#--- Lowdin population analysis ---
# oxidation-state N -0.793
# oxidation-state H +0.308 +0.308 +0.308


-------- Electronic minimization -----------
ElecMinimize: Iter:   0  Etot: -11.760752569525346  |grad|_K:  1.888e-04  alpha:  1.000e+00
ElecMinimize: Iter:   1  Etot: -11.762851112595753  |grad|_K:  4.518e-05  alpha:  6.697e-01  linmin: -2.262e-04  t[s]:     11.28
ElecMinimize: Iter:   2  Etot: -11.762984012147710  |grad|_K:  2.148e-05  alpha:  7.394e-01  linmin:  1.712e-04  t[s]:     11.62
ElecMinimize: Iter:   3  Etot: -11.763024167821616  |grad|_K:  1.093e-05  alpha:  9.886e-01  linmin: -3.268e-04  t[s]:     11.96
ElecMinimize: Iter:   4  Etot: -11.763035083177604  |grad|_K:  5.583e-06  alpha:  1.038e+00  linmin: -1.888e-05  t[s]:     12.30
ElecMinimize: Iter:   5  Etot: -11.763038592058663  |grad|_K:  3.623e-06  alpha:  1.278e+00  linmin:  1.446e-04  t[s]:     12.64
ElecMinimize: Iter:   6  Etot: -11.763040028914702  |grad|_K:  2.396e-06  alpha:  1.244e+00  linmin:  4.508e-05  t[s]:     12.98
ElecMinimize: Iter:   7  Etot: -11.763040573340582  |grad|_K:  1.276e-06  alpha:  1.077e+00  linmin: -3.765e-05  t[s]:     13.32
ElecMinimize: Iter:   8  Etot: -11.763040735739295  |grad|_K:  7.346e-07  alpha:  1.132e+00  linmin: -8.843e-06  t[s]:     13.66
ElecMinimize: Iter:   9  Etot: -11.763040787378802  |grad|_K:  4.176e-07  alpha:  1.087e+00  linmin: -2.936e-06  t[s]:     14.00
ElecMinimize: Iter:  10  Etot: -11.763040805426712  |grad|_K:  2.261e-07  alpha:  1.175e+00  linmin: -9.117e-06  t[s]:     14.34
ElecMinimize: Iter:  11  Etot: -11.763040810328260  |grad|_K:  1.193e-07  alpha:  1.089e+00  linmin:  1.231e-05  t[s]:     14.68
ElecMinimize: Iter:  12  Etot: -11.763040811741348  |grad|_K:  6.634e-08  alpha:  1.128e+00  linmin: -7.055e-05  t[s]:     15.02
ElecMinimize: Converged (|Delta Etot|<1.000000e-08 for 2 iters).
Setting wave functions to eigenvectors of Hamiltonian

# Ionic positions in cartesian coordinates:
ion N  -0.343260000000000  -0.484880000000000   0.000000000000000 0
ion H   0.334401474536812   1.412295954113576   0.000000000000000 1
ion H   0.334317289200756  -1.434578496637550   1.642946632571469 1
ion H   0.334317289200756  -1.434578496637550  -1.642946632571469 1


# Forces in Cartesian coordinates:
force N   0.016867773638734  -0.000323754511417   0.000000000000000 0
force H  -0.005562281125045  -0.031145766289801   0.000000000000000 1
force H  -0.005638442607076   0.015699397590083  -0.027027909139809 1
force H  -0.005638442607076   0.015699397590083   0.027027909139809 1

# Energy components:
   Eewald =        3.1729726120427331
       EH =       12.4442974346541195
     Eloc =      -32.0063115099803994
      Enl =        1.4620324011659895
      Exc =       -3.7052171936797400
 Exc_core =        0.0886158167782322
       KE =        6.7805696272777167
-------------------------------------
     Etot =      -11.7630408117413481

IonicMinimize: Iter:   1  Etot: -11.763040811741348  |grad|_K:  1.831e-02  alpha:  1.000e+00  linmin: -9.558e-01  t[s]:     15.26

#--- Lowdin population analysis ---
# oxidation-state N -0.811
# oxidation-state H +0.316 +0.316 +0.316


-------- Electronic minimization -----------
ElecMinimize: Iter:   0  Etot: -11.755624777982314  |grad|_K:  4.273e-04  alpha:  1.000e+00
ElecMinimize: Iter:   1  Etot: -11.766055918770382  |grad|_K:  1.009e-04  alpha:  6.518e-01  linmin:  1.714e-04  t[s]:     15.98
ElecMinimize: Iter:   2  Etot: -11.766685764023066  |grad|_K:  4.689e-05  alpha:  7.030e-01  linmin:  2.562e-04  t[s]:     16.32
ElecMinimize: Iter:   3  Etot: -11.766870636609013  |grad|_K:  2.317e-05  alpha:  9.551e-01  linmin: -6.267e-04  t[s]:     16.66
ElecMinimize: Iter:   4  Etot: -11.766918443994886  |grad|_K:  1.168e-05  alpha:  1.011e+00  linmin: -2.949e-05  t[s]:     17.00
ElecMinimize: Iter:   5  Etot: -11.766933064424013  |grad|_K:  7.566e-06  alpha:  1.216e+00  linmin:  2.549e-04  t[s]:     17.34
ElecMinimize: Iter:   6  Etot: -11.766939021098926  |grad|_K:  4.974e-06  alpha:  1.182e+00  linmin:  1.037e-04  t[s]:     17.68
ElecMinimize: Iter:   7  Etot: -11.766941353784476  |grad|_K:  2.691e-06  alpha:  1.071e+00  linmin: -8.360e-05  t[s]:     18.03
ElecMinimize: Iter:   8  Etot: -11.766942057386146  |grad|_K:  1.552e-06  alpha:  1.104e+00  linmin: -3.205e-05  t[s]:     18.37
ElecMinimize: Iter:   9  Etot: -11.766942281829039  |grad|_K:  8.695e-07  alpha:  1.058e+00  linmin: -5.396e-06  t[s]:     18.71
ElecMinimize: Iter:  10  Etot: -11.766942359680531  |grad|_K:  4.826e-07  alpha:  1.169e+00  linmin: -1.479e-05  t[s]:     19.06
ElecMinimize: Iter:  11  Etot: -11.766942381491921  |grad|_K:  2.552e-07  alpha:  1.064e+00  linmin:  1.650e-06  t[s]:     19.40
ElecMinimize: Iter:  12  Etot: -11.766942387606672  |grad|_K:  1.408e-07  alpha:  1.067e+00  linmin: -9.467e-07  t[s]:     19.74
ElecMinimize: Iter:  13  Etot: -11.766942389371430  |grad|_K:  7.693e-08  alpha:  1.011e+00  linmin:  1.662e-05  t[s]:     20.08
ElecMinimize: Converged (|Delta Etot|<1.000000e-08 for 2 iters).
Setting wave functions to eigenvectors of Hamiltonian

# Ionic positions in cartesian coordinates:
ion N  -0.343260000000000  -0.484880000000000   0.000000000000000 0
ion H   0.320926196518497   1.313745279018726   0.000000000000000 1
ion H   0.320477016083482  -1.384719406722891   1.557374919997036 1
ion H   0.320477016083482  -1.384719406722891  -1.557374919997036 1


# Forces in Cartesian coordinates:
force N  -0.013770295857055  -0.000065795587537   0.000000000000000 0
force H   0.004595943859135   0.007289345647290   0.000000000000000 1
force H   0.004601504935101  -0.003646857629412   0.006410869330979 1
force H   0.004601504935101  -0.003646857629412  -0.006410869330979 1

# Energy components:
   Eewald =        3.5992477334762620
       EH =       12.7976809845350523
     Eloc =      -32.9064129956885907
      Enl =        1.4748079058679020
      Exc =       -3.7673556126759786
 Exc_core =        0.0886158167782321
       KE =        6.9464737783356911
-------------------------------------
     Etot =      -11.7669423893714296

IonicMinimize: Iter:   2  Etot: -11.766942389371430  |grad|_K:  5.004e-03  alpha:  9.649e-01  linmin:  6.724e-01  t[s]:     20.30

#--- Lowdin population analysis ---
# oxidation-state N -0.852
# oxidation-state H +0.333 +0.333 +0.333


-------- Electronic minimization -----------
ElecMinimize: Iter:   0  Etot: -11.766709797029606  |grad|_K:  8.802e-05  alpha:  1.000e+00
ElecMinimize: Iter:   1  Etot: -11.767146081314426  |grad|_K:  2.163e-05  alpha:  6.390e-01  linmin: -3.525e-04  t[s]:     21.02
ElecMinimize: Iter:   2  Etot: -11.767175642913047  |grad|_K:  1.016e-05  alpha:  7.172e-01  linmin: -4.520e-05  t[s]:     21.37
ElecMinimize: Iter:   3  Etot: -11.767184400464505  |grad|_K:  5.079e-06  alpha:  9.641e-01  linmin:  1.239e-04  t[s]:     21.71
ElecMinimize: Iter:   4  Etot: -11.767186776956869  |grad|_K:  2.601e-06  alpha:  1.046e+00  linmin:  1.869e-06  t[s]:     22.05
ElecMinimize: Iter:   5  Etot: -11.767187517818563  |grad|_K:  1.668e-06  alpha:  1.244e+00  linmin: -5.704e-05  t[s]:     22.39
ElecMinimize: Iter:   6  Etot: -11.767187813820456  |grad|_K:  1.070e-06  alpha:  1.208e+00  linmin: -2.197e-05  t[s]:     22.73
ElecMinimize: Iter:   7  Etot: -11.767187921465304  |grad|_K:  5.787e-07  alpha:  1.067e+00  linmin:  1.879e-05  t[s]:     23.08
ElecMinimize: Iter:   8  Etot: -11.767187954486580  |grad|_K:  3.368e-07  alpha:  1.120e+00  linmin:  5.201e-06  t[s]:     23.42
ElecMinimize: Iter:   9  Etot: -11.767187965013001  |grad|_K:  1.938e-07  alpha:  1.054e+00  linmin: -3.021e-06  t[s]:     23.76
ElecMinimize: Iter:  10  Etot: -11.767187968813104  |grad|_K:  1.046e-07  alpha:  1.149e+00  linmin:  3.347e-05  t[s]:     24.10
ElecMinimize: Iter:  11  Etot: -11.767187969855369  |grad|_K:  5.594e-08  alpha:  1.082e+00  linmin: -3.465e-05  t[s]:     24.48
ElecMinimize: Converged (|Delta Etot|<1.000000e-08 for 2 iters).
Setting wave functions to eigenvectors of Hamiltonian

# Ionic positions in cartesian coordinates:
ion N  -0.343260000000000  -0.484880000000000   0.000000000000000 0
ion H   0.329865347666439   1.331701277581964   0.000000000000000 1
ion H   0.329460217933059  -1.393752101118356   1.573136418138675 1
ion H   0.329460217933059  -1.393752101118356  -1.573136418138675 1


# Forces in Cartesian coordinates:
force N  -0.005899016665271  -0.000153199683096   0.000000000000000 0
force H   0.001992920928314  -0.001429499089514   0.000000000000000 1
force H   0.001969075839379   0.000756556519245  -0.001227662478312 1
force H   0.001969075839379   0.000756556519245   0.001227662478312 1

# Energy components:
   Eewald =        3.5091562090791411
       EH =       12.7236014795908705
     Eloc =      -32.7168175862910715
      Enl =        1.4715783151663282
      Exc =       -3.7542357809826341
 Exc_core =        0.0886158167782322
       KE =        6.9109135768037628
-------------------------------------
     Etot =      -11.7671879698553692

IonicMinimize: Iter:   3  Etot: -11.767187969855369  |grad|_K:  1.411e-03  alpha:  1.000e+00  linmin:  9.778e-02  t[s]:     24.77

#--- Lowdin population analysis ---
# oxidation-state N -0.843
# oxidation-state H +0.329 +0.329 +0.329


-------- Electronic minimization -----------
ElecMinimize: Iter:   0  Etot: -11.767219001049757  |grad|_K:  1.083e-05  alpha:  1.000e+00
ElecMinimize: Iter:   1  Etot: -11.767225794864519  |grad|_K:  1.875e-06  alpha:  6.578e-01  linmin: -8.228e-08  t[s]:     25.51
ElecMinimize: Iter:   2  Etot: -11.767226055670612  |grad|_K:  8.754e-07  alpha:  8.422e-01  linmin: -7.993e-07  t[s]:     25.88
ElecMinimize: Iter:   3  Etot: -11.767226118851543  |grad|_K:  4.228e-07  alpha:  9.364e-01  linmin: -3.059e-06  t[s]:     26.22
ElecMinimize: Iter:   4  Etot: -11.767226134487695  |grad|_K:  2.210e-07  alpha:  9.937e-01  linmin: -6.112e-06  t[s]:     26.56
ElecMinimize: Iter:   5  Etot: -11.767226139221343  |grad|_K:  1.167e-07  alpha:  1.101e+00  linmin:  1.442e-05  t[s]:     26.91
ElecMinimize: Iter:   6  Etot: -11.767226140580735  |grad|_K:  6.770e-08  alpha:  1.134e+00  linmin:  1.001e-05  t[s]:     27.25
ElecMinimize: Converged (|Delta Etot|<1.000000e-08 for 2 iters).
Setting wave functions to eigenvectors of Hamiltonian
IonicMinimize: 	Wolfe criterion not satisfied: alpha: 1  (E-E0)/|gdotd0|: -0.956313  gdotd/gdotd0: 0.912629 (taking cubic step)

-------- Electronic minimization -----------
ElecMinimize: Iter:   0  Etot: -11.767263398139736  |grad|_K:  2.168e-05  alpha:  1.000e+00
ElecMinimize: Iter:   1  Etot: -11.767290611438932  |grad|_K:  3.755e-06  alpha:  6.574e-01  linmin: -2.006e-06  t[s]:     28.18
ElecMinimize: Iter:   2  Etot: -11.767291655139132  |grad|_K:  1.752e-06  alpha:  8.408e-01  linmin: -3.246e-06  t[s]:     28.54
ElecMinimize: Iter:   3  Etot: -11.767291908070209  |grad|_K:  8.511e-07  alpha:  9.360e-01  linmin: -1.825e-06  t[s]:     28.88
ElecMinimize: Iter:   4  Etot: -11.767291971917949  |grad|_K:  4.514e-07  alpha:  1.001e+00  linmin: -2.931e-06  t[s]:     29.22
ElecMinimize: Iter:   5  Etot: -11.767291991781269  |grad|_K:  2.410e-07  alpha:  1.107e+00  linmin: -5.544e-06  t[s]:     29.56
ElecMinimize: Iter:   6  Etot: -11.767291997519219  |grad|_K:  1.402e-07  alpha:  1.122e+00  linmin: -1.559e-05  t[s]:     29.90
ElecMinimize: Iter:   7  Etot: -11.767291999364877  |grad|_K:  8.192e-08  alpha:  1.066e+00  linmin: -2.211e-05  t[s]:     30.24
ElecMinimize: Converged (|Delta Etot|<1.000000e-08 for 2 iters).
Setting wave functions to eigenvectors of Hamiltonian

# Ionic positions in cartesian coordinates:
ion N  -0.343260000000000  -0.484880000000000   0.000000000000000 0
ion H   0.344864977020354   1.324449326486394   0.000000000000000 1
ion H   0.344302637862071  -1.389847609273027   1.566976752433206 1
ion H   0.344302637862071  -1.389847609273027  -1.566976752433206 1


# Forces in Cartesian coordinates:
force N  -0.005736578149615  -0.000083738688471   0.000000000000000 0
force H   0.001922911961980  -0.000113443610692   0.000000000000000 1
force H   0.001924843904655   0.000064061491495  -0.000079801845232 1
force H   0.001924843904655   0.000064061491495   0.000079801845232 1

# Energy components:
   Eewald =        3.5192759850959217
       EH =       12.7310367407896976
     Eloc =      -32.7362388048316220
      Enl =        1.4717680042352776
      Exc =       -3.7555143149907892
 Exc_core =        0.0886158167782321
       KE =        6.9137645735584012
-------------------------------------
     Etot =      -11.7672919993648772

IonicMinimize: Iter:   4  Etot: -11.767291999364877  |grad|_K:  1.113e-03  alpha:  3.000e+00  linmin: -4.632e-01  t[s]:     30.45

#--- Lowdin population analysis ---
# oxidation-state N -0.843
# oxidation-state H +0.329 +0.329 +0.329


-------- Electronic minimization -----------
ElecMinimize: Iter:   0  Etot: -11.763713895984964  |grad|_K:  2.432e-04  alpha:  1.000e+00
ElecMinimize: Iter:   1  Etot: -11.767288008887904  |grad|_K:  4.596e-05  alpha:  6.860e-01  linmin: -7.716e-05  t[s]:     31.16
ElecMinimize: Iter:   2  Etot: -11.767440050968377  |grad|_K:  1.910e-05  alpha:  8.176e-01  linmin: -3.641e-04  t[s]:     31.50
ElecMinimize: Iter:   3  Etot: -11.767466552096856  |grad|_K:  8.340e-06  alpha:  8.252e-01  linmin:  1.610e-04  t[s]:     31.83
ElecMinimize: Iter:   4  Etot: -11.767472094719535  |grad|_K:  4.172e-06  alpha:  9.051e-01  linmin: -9.349e-05  t[s]:     32.17
ElecMinimize: Iter:   5  Etot: -11.767473717872479  |grad|_K:  2.385e-06  alpha:  1.059e+00  linmin:  5.721e-05  t[s]:     32.51
ElecMinimize: Iter:   6  Etot: -11.767474269858685  |grad|_K:  1.533e-06  alpha:  1.102e+00  linmin: -4.239e-05  t[s]:     32.85
ElecMinimize: Iter:   7  Etot: -11.767474489858706  |grad|_K:  8.999e-07  alpha:  1.063e+00  linmin:  3.135e-05  t[s]:     33.20
ElecMinimize: Iter:   8  Etot: -11.767474566977029  |grad|_K:  5.028e-07  alpha:  1.082e+00  linmin: -1.855e-05  t[s]:     33.53
ElecMinimize: Iter:   9  Etot: -11.767474591212608  |grad|_K:  2.774e-07  alpha:  1.089e+00  linmin:  9.865e-06  t[s]:     33.87
ElecMinimize: Iter:  10  Etot: -11.767474599131258  |grad|_K:  1.630e-07  alpha:  1.169e+00  linmin:  3.601e-06  t[s]:     34.22
ElecMinimize: Iter:  11  Etot: -11.767474601781453  |grad|_K:  9.703e-08  alpha:  1.133e+00  linmin:  1.722e-05  t[s]:     34.55
ElecMinimize: Converged (|Delta Etot|<1.000000e-08 for 2 iters).
Setting wave functions to eigenvectors of Hamiltonian

# Ionic positions in cartesian coordinates:
ion N  -0.343260000000000  -0.484880000000000   0.000000000000000 0
ion H   0.407257315375608   1.304711959688313   0.000000000000000 1
ion H   0.406501894601775  -1.379398430330325   1.550437371242031 1
ion H   0.406501894601775  -1.379398430330325  -1.550437371242031 1


# Forces in Cartesian coordinates:
force N  -0.000347511504449  -0.000038052773402   0.000000000000000 0
force H   0.000115577815102   0.000686513443605   0.000000000000000 1
force H   0.000136457456952  -0.000358249192138   0.000514316633341 1
force H   0.000136457456952  -0.000358249192138  -0.000514316633341 1

# Energy components:
   Eewald =        3.5104892587615253
       EH =       12.7200002418139420
     Eloc =      -32.7098026824720449
      Enl =        1.4709043849598176
      Exc =       -3.7533358149222198
 Exc_core =        0.0886158167782322
       KE =        6.9056541932992932
-------------------------------------
     Etot =      -11.7674746017814531

IonicMinimize: Iter:   5  Etot: -11.767474601781453  |grad|_K:  3.812e-04  alpha:  1.000e+00  linmin:  1.025e-01  t[s]:     34.79

#--- Lowdin population analysis ---
# oxidation-state N -0.836
# oxidation-state H +0.327 +0.327 +0.327


-------- Electronic minimization -----------
ElecMinimize: Iter:   0  Etot: -11.767473176317697  |grad|_K:  6.464e-06  alpha:  1.000e+00
ElecMinimize: Iter:   1  Etot: -11.767475555778251  |grad|_K:  1.180e-06  alpha:  6.467e-01  linmin: -8.983e-06  t[s]:     35.52
ElecMinimize: Iter:   2  Etot: -11.767475646949155  |grad|_K:  5.389e-07  alpha:  7.432e-01  linmin: -5.640e-06  t[s]:     35.86
ElecMinimize: Iter:   3  Etot: -11.767475670621341  |grad|_K:  2.684e-07  alpha:  9.258e-01  linmin:  7.381e-06  t[s]:     36.20
ElecMinimize: Iter:   4  Etot: -11.767475677045905  |grad|_K:  1.450e-07  alpha:  1.013e+00  linmin: -1.602e-05  t[s]:     36.57
ElecMinimize: Iter:   5  Etot: -11.767475679011842  |grad|_K:  8.243e-08  alpha:  1.062e+00  linmin:  2.604e-05  t[s]:     36.91
ElecMinimize: Converged (|Delta Etot|<1.000000e-08 for 2 iters).
Setting wave functions to eigenvectors of Hamiltonian

# Ionic positions in cartesian coordinates:
ion N  -0.343260000000000  -0.484880000000000   0.000000000000000 0
ion H   0.405233444876580   1.308220910591422   0.000000000000000 1
ion H   0.405003525962712  -1.381442019019411   1.550701011366256 1
ion H   0.405003525962712  -1.381442019019411  -1.550701011366256 1


# Forces in Cartesian coordinates:
force N   0.000006273011461   0.000531482140352   0.000000000000000 0
force H  -0.000159505605127  -0.000498267336327   0.000000000000000 1
force H   0.000096161819387  -0.000046986714218   0.000325193130608 1
force H   0.000096161819387  -0.000046986714218  -0.000325193130608 1

# Energy components:
   Eewald =        3.5046604161318826
       EH =       12.7153244885507810
     Eloc =      -32.6978043299265551
      Enl =        1.4707226902516757
      Exc =       -3.7525232018895434
 Exc_core =        0.0886158167782322
       KE =        6.9035284410916802
-------------------------------------
     Etot =      -11.7674756790118415

IonicMinimize: Iter:   6  Etot: -11.767475679011842  |grad|_K:  2.376e-04  alpha:  1.000e+00  linmin:  2.801e-01  t[s]:     37.13

#--- Lowdin population analysis ---
# oxidation-state N -0.836
# oxidation-state H +0.327 +0.327 +0.327


-------- Electronic minimization -----------
ElecMinimize: Iter:   0  Etot: -11.767475913640741  |grad|_K:  2.360e-06  alpha:  1.000e+00
ElecMinimize: Iter:   1  Etot: -11.767476261635350  |grad|_K:  6.189e-07  alpha:  7.094e-01  linmin:  4.256e-07  t[s]:     37.83
ElecMinimize: Iter:   2  Etot: -11.767476296572813  |grad|_K:  3.397e-07  alpha:  1.036e+00  linmin: -6.764e-06  t[s]:     38.16
ElecMinimize: Iter:   3  Etot: -11.767476305288834  |grad|_K:  1.502e-07  alpha:  8.578e-01  linmin:  8.945e-06  t[s]:     38.50
ElecMinimize: Iter:   4  Etot: -11.767476307292819  |grad|_K:  7.153e-08  alpha:  1.008e+00  linmin:  8.347e-05  t[s]:     38.84
ElecMinimize: Converged (|Delta Etot|<1.000000e-08 for 2 iters).
Setting wave functions to eigenvectors of Hamiltonian

# Ionic positions in cartesian coordinates:
ion N  -0.343260000000000  -0.484880000000000   0.000000000000000 0
ion H   0.404846359881829   1.306921721871435   0.000000000000000 1
ion H   0.405024423805932  -1.381333715682557   1.551656033191273 1
ion H   0.405024423805932  -1.381333715682557  -1.551656033191273 1


# Forces in Cartesian coordinates:
force N   0.000010487973383  -0.000242485174447   0.000000000000000 0
force H   0.000048119370892   0.000071653212978   0.000000000000000 1
force H  -0.000010209792759   0.000045348953611   0.000015840937702 1
force H  -0.000010209792759   0.000045348953611  -0.000015840937702 1

# Energy components:
   Eewald =        3.5044885483756953
       EH =       12.7151913149781510
     Eloc =      -32.6974702468802505
      Enl =        1.4707273376310135
      Exc =       -3.7525005037087511
 Exc_core =        0.0886158167782322
       KE =        6.9034714255330893
-------------------------------------
     Etot =      -11.7674763072928190

IonicMinimize: Iter:   7  Etot: -11.767476307292819  |grad|_K:  3.693e-05  alpha:  1.000e+00  linmin:  1.407e-01  t[s]:     39.08
IonicMinimize: Converged (|grad|_K<1.000000e-04).

#--- Lowdin population analysis ---
# oxidation-state N -0.836
# oxidation-state H +0.327 +0.327 +0.327


Dumping 'amoniaini.ionpos' ... done
End date and time: Thu May  9 21:46:22 2019  (Duration: 0-0:00:39.09)
Done!
