
*************** JDFTx 1.4.2  ***************

Start date and time: Thu May  9 21:48:04 2019
Executable jdftx with command-line: -i amoniafini.in
Running on hosts (process indices):  Juans-MBP.lan1 (0)
Divided in process groups (process indices):  0 (0)
Resource initialization completed at t[s]:      0.00
Run totals: 1 processes, 12 threads, 0 GPUs


Input parsed successfully to the following command list (including defaults):

basis kpoint-dependent
coords-type Cartesian
core-overlap-check vector
coulomb-interaction Periodic
davidson-band-ratio 1.1
dump End IonicPositions
dump-name $INPUT.$VAR
elec-cutoff 20 100
elec-eigen-algo Davidson
elec-ex-corr gga-PBE
electronic-minimize  \
	dirUpdateScheme      FletcherReeves \
	linminMethod         DirUpdateRecommended \
	nIterations          100 \
	history              15 \
	knormThreshold       0 \
	energyDiffThreshold  1e-08 \
	nEnergyDiff          2 \
	alphaTstart          1 \
	alphaTmin            1e-10 \
	updateTestStepSize   yes \
	alphaTreduceFactor   0.1 \
	alphaTincreaseFactor 3 \
	nAlphaAdjustMax      3 \
	wolfeEnergy          0.0001 \
	wolfeGradient        0.9 \
	fdTest               no
exchange-regularization WignerSeitzTruncated
fluid None
fluid-ex-corr lda-TF lda-PZ
fluid-gummel-loop 10 1.000000e-05
fluid-minimize  \
	dirUpdateScheme      PolakRibiere \
	linminMethod         DirUpdateRecommended \
	nIterations          100 \
	history              15 \
	knormThreshold       0 \
	energyDiffThreshold  0 \
	nEnergyDiff          2 \
	alphaTstart          1 \
	alphaTmin            1e-10 \
	updateTestStepSize   yes \
	alphaTreduceFactor   0.1 \
	alphaTincreaseFactor 3 \
	nAlphaAdjustMax      3 \
	wolfeEnergy          0.0001 \
	wolfeGradient        0.9 \
	fdTest               no
fluid-solvent H2O 55.338 ScalarEOS \
	epsBulk 78.4 \
	pMol 0.92466 \
	epsInf 1.77 \
	Pvap 1.06736e-10 \
	sigmaBulk 4.62e-05 \
	Rvdw 2.61727 \
	Res 1.42
forces-output-coords Positions
ion N  -0.343260000000000  -0.484880000000000   0.000000000000000 0
ion H   0.343260000000000   1.457150000000000   0.000000000000000 1
ion H   0.343260000000000  -1.457150000000000   1.681860000000000 1
ion H   0.343260000000000  -1.457150000000000  -1.681860000000000 1
ion-species GBRV/$ID_pbe.uspp
ion-width 0
ionic-minimize  \
	dirUpdateScheme      L-BFGS \
	linminMethod         DirUpdateRecommended \
	nIterations          20 \
	history              15 \
	knormThreshold       0.0001 \
	energyDiffThreshold  1e-06 \
	nEnergyDiff          2 \
	alphaTstart          1 \
	alphaTmin            1e-10 \
	updateTestStepSize   yes \
	alphaTreduceFactor   0.1 \
	alphaTincreaseFactor 3 \
	nAlphaAdjustMax      3 \
	wolfeEnergy          0.0001 \
	wolfeGradient        0.9 \
	fdTest               no
kpoint   0.000000000000   0.000000000000   0.000000000000  1.00000000000000
kpoint-folding 1 1 1 
latt-move-scale 1 1 1
latt-scale 1 1 1 
lattice  \
	  15.686500000000001    0.000000000000000    0.000000000000000  \
	   0.000000000000000   17.914300000000001    0.000000000000000  \
	   0.000000000000000    0.000000000000000   18.363700000000001 
lattice-minimize  \
	dirUpdateScheme      L-BFGS \
	linminMethod         DirUpdateRecommended \
	nIterations          0 \
	history              15 \
	knormThreshold       0 \
	energyDiffThreshold  1e-06 \
	nEnergyDiff          2 \
	alphaTstart          1 \
	alphaTmin            1e-10 \
	updateTestStepSize   yes \
	alphaTreduceFactor   0.1 \
	alphaTincreaseFactor 3 \
	nAlphaAdjustMax      3 \
	wolfeEnergy          0.0001 \
	wolfeGradient        0.9 \
	fdTest               no
lcao-params -1 1e-06 0.001
pcm-variant GLSSA13
spintype no-spin
subspace-rotation-factor 1 yes
symmetries automatic
symmetry-threshold 0.0001



---------- Setting up symmetries ----------

Found 8 point-group symmetries of the bravais lattice
Found 2 space-group symmetries with basis
Applied RMS atom displacement 0 bohrs to make symmetries exact.

---------- Initializing the Grid ----------
R = 
[    15.6865          0          0  ]
[          0    17.9143          0  ]
[          0          0    18.3637  ]
unit cell volume = 5160.43
G =
[   0.400547          0          0  ]
[          0   0.350736          0  ]
[          0          0   0.342152  ]
Minimum fftbox size, Smin = [  72  84  84  ]
Chosen fftbox size, S = [  72  84  84  ]

---------- Initializing tighter grid for wavefunction operations ----------
R = 
[    15.6865          0          0  ]
[          0    17.9143          0  ]
[          0          0    18.3637  ]
unit cell volume = 5160.43
G =
[   0.400547          0          0  ]
[          0   0.350736          0  ]
[          0          0   0.342152  ]
Minimum fftbox size, Smin = [  64  76  76  ]
Chosen fftbox size, S = [  64  80  80  ]

---------- Exchange Correlation functional ----------
Initalized PBE GGA exchange.
Initalized PBE GGA correlation.

---------- Setting up pseudopotentials ----------
Width of ionic core gaussian charges (only for fluid interactions / plotting) set to 0

Reading pseudopotential file '/Users/juanmendezvalderrama/Documents/JDFTX/build/pseudopotentials/GBRV/n_pbe.uspp':
  Title: N.  Created by USPP 7.3.6 on 3-2-2014
  Reference state energy: -9.763716.  5 valence electrons in orbitals:
    |200>  occupation: 2  eigenvalue: -0.681964
    |210>  occupation: 3  eigenvalue: -0.260726
  lMax: 1  lLocal: 2  QijEcut: 6
  4 projectors sampled on a log grid with 491 points:
    l: 0  eig: -0.681964  rCut: 1.15
    l: 0  eig: 0.000000  rCut: 1.15
    l: 1  eig: -0.260729  rCut: 1.2
    l: 1  eig: 0.500000  rCut: 1.2
  Partial core density with radius 0.8
  Transforming core density to a uniform radial grid of dG=0.02 with 1262 points.
  Transforming local potential to a uniform radial grid of dG=0.02 with 1262 points.
  Transforming nonlocal projectors to a uniform radial grid of dG=0.02 with 432 points.
  Transforming density augmentations to a uniform radial grid of dG=0.02 with 1262 points.
  Transforming atomic orbitals to a uniform radial grid of dG=0.02 with 432 points.
  Core radius for overlap checks: 1.20 bohrs.

Reading pseudopotential file '/Users/juanmendezvalderrama/Documents/JDFTX/build/pseudopotentials/GBRV/h_pbe.uspp':
  Title: H.  Created by USPP 7.3.6 on 2-4-15
  Reference state energy: -0.458849.  1 valence electrons in orbitals:
    |100>  occupation: 1  eigenvalue: -0.238595
  lMax: 0  lLocal: 1  QijEcut: 6
  2 projectors sampled on a log grid with 395 points:
    l: 0  eig: -0.238595  rCut: 1.2
    l: 0  eig: 1.000000  rCut: 1.2
  Transforming local potential to a uniform radial grid of dG=0.02 with 1262 points.
  Transforming nonlocal projectors to a uniform radial grid of dG=0.02 with 432 points.
  Transforming density augmentations to a uniform radial grid of dG=0.02 with 1262 points.
  Transforming atomic orbitals to a uniform radial grid of dG=0.02 with 432 points.
  Core radius for overlap checks: 1.20 bohrs.

Initialized 2 species with 4 total atoms.

Folded 1 k-points by 1x1x1 to 1 k-points.

---------- Setting up k-points, bands, fillings ----------
No reducable k-points. 
Computing the number of bands and number of electrons
Calculating initial fillings.
nElectrons:   8.000000   nBands: 4   nStates: 1

----- Setting up reduced wavefunction bases (one per k-point) -----
average nbasis = 22011.000 , ideal nbasis = 22045.760

---------- Setting up ewald sum ----------
Optimum gaussian width for ewald sums = 5.471782 bohr.
Real space sum over 891 unit cells with max indices [  5  4  4  ]
Reciprocal space sum over 2535 terms with max indices [  6  6  7  ]

---------- Allocating electronic variables ----------
Initializing wave functions:  linear combination of atomic orbitals
N pseudo-atom occupations:   s ( 2 )  p ( 3 )
H pseudo-atom occupations:   s ( 1 )
	FillingsUpdate:  mu: -0.000000000  nElectrons: 8.000000
LCAOMinimize: Iter:   0  Etot: -11.5462752748663124  |grad|_K:  6.980e-02  alpha:  1.000e+00
	FillingsUpdate:  mu: -0.005731150  nElectrons: 8.000000
LCAOMinimize: Iter:   1  Etot: -11.6147556621397214  |grad|_K:  3.710e-03  alpha:  4.304e-01  linmin:  5.993e-02  cgtest: -3.809e-02  t[s]:      4.35
	FillingsUpdate:  mu: -0.003704918  nElectrons: 8.000000
LCAOMinimize: Iter:   2  Etot: -11.6151275199907609  |grad|_K:  2.349e-04  alpha:  8.755e-01  linmin:  1.794e-01  cgtest: -8.790e-01  t[s]:      4.73
	FillingsUpdate:  mu: -0.003771675  nElectrons: 8.000000
LCAOMinimize: Iter:   3  Etot: -11.6151276178792955  |grad|_K:  2.146e-04  alpha:  3.218e-01  linmin: -3.853e-05  cgtest:  9.413e-01  t[s]:      5.12
LCAOMinimize: Encountered beta<0, resetting CG.
LCAOMinimize: None of the convergence criteria satisfied after 3 iterations.


---- Citations for features of the code used in this run ----

   Software package:
      R. Sundararaman, K. Letchworth-Weaver, K.A. Schwarz, D. Gunceler, Y. Ozhabes and T.A. Arias, 'JDFTx: software for joint density-functional theory', SoftwareX 6, 278 (2017)

   gga-PBE exchange-correlation functional:
      J.P. Perdew, K. Burke and M. Ernzerhof, Phys. Rev. Lett. 77, 3865 (1996)

   Pseudopotentials:
      KF Garrity, JW Bennett, KM Rabe and D Vanderbilt, Comput. Mater. Sci. 81, 446 (2014)

   Total energy minimization:
      T.A. Arias, M.C. Payne and J.D. Joannopoulos, Phys. Rev. Lett. 69, 1077 (1992)

This list may not be complete. Please suggest additional citations or
report any other bugs at https://github.com/shankar1729/jdftx/issues

Initialization completed successfully at t[s]:      5.13


-------- Electronic minimization -----------
ElecMinimize: Iter:   0  Etot: -11.615127617879295  |grad|_K:  1.330e-03  alpha:  1.000e+00
ElecMinimize: Iter:   1  Etot: -11.742098699596770  |grad|_K:  3.527e-04  alpha:  8.157e-01  linmin: -3.008e-03  t[s]:      5.86
ElecMinimize: Iter:   2  Etot: -11.754088447913368  |grad|_K:  1.790e-04  alpha:  1.093e+00  linmin: -4.665e-03  t[s]:      6.21
ElecMinimize: Iter:   3  Etot: -11.756791432286121  |grad|_K:  8.980e-05  alpha:  9.551e-01  linmin: -1.352e-04  t[s]:      6.55
ElecMinimize: Iter:   4  Etot: -11.757473858896089  |grad|_K:  4.177e-05  alpha:  9.610e-01  linmin:  7.303e-04  t[s]:      6.89
ElecMinimize: Iter:   5  Etot: -11.757630065143299  |grad|_K:  2.048e-05  alpha:  1.018e+00  linmin:  1.394e-03  t[s]:      7.23
ElecMinimize: Iter:   6  Etot: -11.757671338882503  |grad|_K:  1.083e-05  alpha:  1.119e+00  linmin: -4.290e-04  t[s]:      7.57
ElecMinimize: Iter:   7  Etot: -11.757681516310480  |grad|_K:  5.440e-06  alpha:  9.860e-01  linmin:  1.725e-04  t[s]:      7.92
ElecMinimize: Iter:   8  Etot: -11.757683937359340  |grad|_K:  2.703e-06  alpha:  9.292e-01  linmin: -1.405e-04  t[s]:      8.26
ElecMinimize: Iter:   9  Etot: -11.757684547145328  |grad|_K:  1.343e-06  alpha:  9.481e-01  linmin: -2.334e-05  t[s]:      8.60
ElecMinimize: Iter:  10  Etot: -11.757684722802805  |grad|_K:  7.208e-07  alpha:  1.106e+00  linmin: -1.105e-04  t[s]:      8.94
ElecMinimize: Iter:  11  Etot: -11.757684769119685  |grad|_K:  3.500e-07  alpha:  1.013e+00  linmin: -1.843e-05  t[s]:      9.28
ElecMinimize: Iter:  12  Etot: -11.757684780405794  |grad|_K:  1.888e-07  alpha:  1.046e+00  linmin: -3.091e-05  t[s]:      9.62
ElecMinimize: Iter:  13  Etot: -11.757684783813463  |grad|_K:  1.064e-07  alpha:  1.086e+00  linmin: -2.165e-05  t[s]:      9.99
ElecMinimize: Iter:  14  Etot: -11.757684784921263  |grad|_K:  6.582e-08  alpha:  1.111e+00  linmin:  6.922e-05  t[s]:     10.32
ElecMinimize: Converged (|Delta Etot|<1.000000e-08 for 2 iters).
Setting wave functions to eigenvectors of Hamiltonian

# Ionic positions in cartesian coordinates:
ion N  -0.343260000000000  -0.484880000000000   0.000000000000000 0
ion H   0.343260000000000   1.457150000000000   0.000000000000000 1
ion H   0.343260000000000  -1.457150000000000   1.681860000000000 1
ion H   0.343260000000000  -1.457150000000000  -1.681860000000000 1


# Forces in Cartesian coordinates:
force N   0.026788344738388  -0.000358392082372   0.000000000000000 0
force H  -0.008858525485967  -0.044854045899415   0.000000000000000 1
force H  -0.008942710816821   0.022571503363708  -0.038913367441004 1
force H  -0.008942710816821   0.022571503363708   0.038913367441004 1

# Energy components:
   Eewald =        2.9894734303884567
       EH =       12.2884052499168686
     Eloc =      -31.6137220010573436
      Enl =        1.4582191445455235
      Exc =       -3.6781628781736919
 Exc_core =        0.0886158167782322
       KE =        6.7094864526806894
-------------------------------------
     Etot =      -11.7576847849212633

IonicMinimize: Iter:   0  Etot: -11.757684784921263  |grad|_K:  2.645e-02  t[s]:     10.54

#--- Lowdin population analysis ---
# oxidation-state N -0.793
# oxidation-state H +0.308 +0.308 +0.308


-------- Electronic minimization -----------
ElecMinimize: Iter:   0  Etot: -11.760752569527186  |grad|_K:  1.888e-04  alpha:  1.000e+00
ElecMinimize: Iter:   1  Etot: -11.762851112598588  |grad|_K:  4.518e-05  alpha:  6.697e-01  linmin: -2.262e-04  t[s]:     11.26
ElecMinimize: Iter:   2  Etot: -11.762984012150124  |grad|_K:  2.148e-05  alpha:  7.394e-01  linmin:  1.712e-04  t[s]:     11.60
ElecMinimize: Iter:   3  Etot: -11.763024167823664  |grad|_K:  1.093e-05  alpha:  9.886e-01  linmin: -3.268e-04  t[s]:     11.94
ElecMinimize: Iter:   4  Etot: -11.763035083179357  |grad|_K:  5.583e-06  alpha:  1.038e+00  linmin: -1.888e-05  t[s]:     12.28
ElecMinimize: Iter:   5  Etot: -11.763038592060227  |grad|_K:  3.623e-06  alpha:  1.278e+00  linmin:  1.446e-04  t[s]:     12.61
ElecMinimize: Iter:   6  Etot: -11.763040028916210  |grad|_K:  2.396e-06  alpha:  1.244e+00  linmin:  4.508e-05  t[s]:     12.96
ElecMinimize: Iter:   7  Etot: -11.763040573342042  |grad|_K:  1.276e-06  alpha:  1.077e+00  linmin: -3.767e-05  t[s]:     13.31
ElecMinimize: Iter:   8  Etot: -11.763040735740731  |grad|_K:  7.346e-07  alpha:  1.132e+00  linmin: -8.955e-06  t[s]:     13.65
ElecMinimize: Iter:   9  Etot: -11.763040787380218  |grad|_K:  4.176e-07  alpha:  1.087e+00  linmin: -2.549e-06  t[s]:     14.00
ElecMinimize: Iter:  10  Etot: -11.763040805428194  |grad|_K:  2.261e-07  alpha:  1.175e+00  linmin: -1.046e-05  t[s]:     14.33
ElecMinimize: Iter:  11  Etot: -11.763040810329734  |grad|_K:  1.193e-07  alpha:  1.089e+00  linmin:  1.856e-05  t[s]:     14.68
ElecMinimize: Iter:  12  Etot: -11.763040811742787  |grad|_K:  6.634e-08  alpha:  1.128e+00  linmin: -1.107e-04  t[s]:     15.06
ElecMinimize: Converged (|Delta Etot|<1.000000e-08 for 2 iters).
Setting wave functions to eigenvectors of Hamiltonian

# Ionic positions in cartesian coordinates:
ion N  -0.343260000000000  -0.484880000000000   0.000000000000000 0
ion H   0.334401474514033   1.412295954100585   0.000000000000000 1
ion H   0.334317289183179  -1.434578496636292   1.642946632558996 1
ion H   0.334317289183179  -1.434578496636292  -1.642946632558996 1


# Forces in Cartesian coordinates:
force N   0.016867773749586  -0.000323754487415   0.000000000000000 0
force H  -0.005562281113425  -0.031145766265649   0.000000000000000 1
force H  -0.005638442596177   0.015699397584248  -0.027027909125088 1
force H  -0.005638442596177   0.015699397584248   0.027027909125088 1

# Energy components:
   Eewald =        3.1729726121134836
       EH =       12.4442974345108048
     Eloc =      -32.0063115098623072
      Enl =        1.4620324010373138
      Exc =       -3.7052171936361513
 Exc_core =        0.0886158167782321
       KE =        6.7805696273158347
-------------------------------------
     Etot =      -11.7630408117427869

IonicMinimize: Iter:   1  Etot: -11.763040811742787  |grad|_K:  1.831e-02  alpha:  1.000e+00  linmin: -9.558e-01  t[s]:     15.45

#--- Lowdin population analysis ---
# oxidation-state N -0.811
# oxidation-state H +0.316 +0.316 +0.316


-------- Electronic minimization -----------
ElecMinimize: Iter:   0  Etot: -11.755624777990908  |grad|_K:  4.273e-04  alpha:  1.000e+00
ElecMinimize: Iter:   1  Etot: -11.766055918771912  |grad|_K:  1.009e-04  alpha:  6.518e-01  linmin:  1.714e-04  t[s]:     16.33
ElecMinimize: Iter:   2  Etot: -11.766685764024817  |grad|_K:  4.689e-05  alpha:  7.030e-01  linmin:  2.562e-04  t[s]:     16.84
ElecMinimize: Iter:   3  Etot: -11.766870636610721  |grad|_K:  2.317e-05  alpha:  9.551e-01  linmin: -6.267e-04  t[s]:     17.24
ElecMinimize: Iter:   4  Etot: -11.766918443996648  |grad|_K:  1.168e-05  alpha:  1.011e+00  linmin: -2.949e-05  t[s]:     17.59
ElecMinimize: Iter:   5  Etot: -11.766933064425725  |grad|_K:  7.566e-06  alpha:  1.216e+00  linmin:  2.549e-04  t[s]:     18.15
ElecMinimize: Iter:   6  Etot: -11.766939021100612  |grad|_K:  4.974e-06  alpha:  1.182e+00  linmin:  1.037e-04  t[s]:     18.99
ElecMinimize: Iter:   7  Etot: -11.766941353786255  |grad|_K:  2.691e-06  alpha:  1.071e+00  linmin: -8.360e-05  t[s]:     19.79
ElecMinimize: Iter:   8  Etot: -11.766942057387983  |grad|_K:  1.552e-06  alpha:  1.104e+00  linmin: -3.213e-05  t[s]:     20.70
ElecMinimize: Iter:   9  Etot: -11.766942281830802  |grad|_K:  8.695e-07  alpha:  1.058e+00  linmin: -5.889e-06  t[s]:     21.61
ElecMinimize: Iter:  10  Etot: -11.766942359682318  |grad|_K:  4.826e-07  alpha:  1.169e+00  linmin: -1.417e-05  t[s]:     22.54
ElecMinimize: Iter:  11  Etot: -11.766942381493738  |grad|_K:  2.552e-07  alpha:  1.064e+00  linmin:  1.226e-06  t[s]:     23.43
ElecMinimize: Iter:  12  Etot: -11.766942387608427  |grad|_K:  1.408e-07  alpha:  1.067e+00  linmin:  3.042e-06  t[s]:     24.24
ElecMinimize: Iter:  13  Etot: -11.766942389373153  |grad|_K:  7.693e-08  alpha:  1.011e+00  linmin:  4.963e-06  t[s]:     24.91
ElecMinimize: Converged (|Delta Etot|<1.000000e-08 for 2 iters).
Setting wave functions to eigenvectors of Hamiltonian

# Ionic positions in cartesian coordinates:
ion N  -0.343260000000000  -0.484880000000000   0.000000000000000 0
ion H   0.320926196665088   1.313745279080940   0.000000000000000 1
ion H   0.320477016202608  -1.384719406670147   1.557374919992453 1
ion H   0.320477016202608  -1.384719406670147  -1.557374919992453 1


# Forces in Cartesian coordinates:
force N  -0.013770295889124  -0.000065795536282   0.000000000000000 0
force H   0.004595943830623   0.007289345584727   0.000000000000000 1
force H   0.004601504923872  -0.003646857620028   0.006410869310786 1
force H   0.004601504923872  -0.003646857620028  -0.006410869310786 1

# Energy components:
   Eewald =        3.5992477332943329
       EH =       12.7976809845868278
     Eloc =      -32.9064129958049065
      Enl =        1.4748079060888888
      Exc =       -3.7673556126955798
 Exc_core =        0.0886158167782322
       KE =        6.9464737783790511
-------------------------------------
     Etot =      -11.7669423893731526

IonicMinimize: Iter:   2  Etot: -11.766942389373153  |grad|_K:  5.004e-03  alpha:  9.649e-01  linmin:  6.724e-01  t[s]:     25.33

#--- Lowdin population analysis ---
# oxidation-state N -0.852
# oxidation-state H +0.333 +0.333 +0.333


-------- Electronic minimization -----------
ElecMinimize: Iter:   0  Etot: -11.766709797033171  |grad|_K:  8.802e-05  alpha:  1.000e+00
ElecMinimize: Iter:   1  Etot: -11.767146081315371  |grad|_K:  2.163e-05  alpha:  6.390e-01  linmin: -3.525e-04  t[s]:     26.65
ElecMinimize: Iter:   2  Etot: -11.767175642913944  |grad|_K:  1.016e-05  alpha:  7.172e-01  linmin: -4.521e-05  t[s]:     27.15
ElecMinimize: Iter:   3  Etot: -11.767184400465405  |grad|_K:  5.079e-06  alpha:  9.641e-01  linmin:  1.239e-04  t[s]:     27.66
ElecMinimize: Iter:   4  Etot: -11.767186776957715  |grad|_K:  2.601e-06  alpha:  1.046e+00  linmin:  1.834e-06  t[s]:     28.23
ElecMinimize: Iter:   5  Etot: -11.767187517819345  |grad|_K:  1.668e-06  alpha:  1.244e+00  linmin: -5.713e-05  t[s]:     28.92
ElecMinimize: Iter:   6  Etot: -11.767187813821298  |grad|_K:  1.070e-06  alpha:  1.208e+00  linmin: -2.186e-05  t[s]:     29.42
ElecMinimize: Iter:   7  Etot: -11.767187921466077  |grad|_K:  5.787e-07  alpha:  1.067e+00  linmin:  1.845e-05  t[s]:     29.93
ElecMinimize: Iter:   8  Etot: -11.767187954487373  |grad|_K:  3.368e-07  alpha:  1.120e+00  linmin:  7.541e-06  t[s]:     30.46
ElecMinimize: Iter:   9  Etot: -11.767187965013846  |grad|_K:  1.938e-07  alpha:  1.054e+00  linmin: -2.542e-07  t[s]:     31.00
ElecMinimize: Iter:  10  Etot: -11.767187968813939  |grad|_K:  1.046e-07  alpha:  1.149e+00  linmin:  2.241e-05  t[s]:     31.52
ElecMinimize: Iter:  11  Etot: -11.767187969856201  |grad|_K:  5.594e-08  alpha:  1.082e+00  linmin: -4.344e-06  t[s]:     32.06
ElecMinimize: Converged (|Delta Etot|<1.000000e-08 for 2 iters).
Setting wave functions to eigenvectors of Hamiltonian

# Ionic positions in cartesian coordinates:
ion N  -0.343260000000000  -0.484880000000000   0.000000000000000 0
ion H   0.329865347742494   1.331701277507181   0.000000000000000 1
ion H   0.329460218021943  -1.393752101054782   1.573136418091426 1
ion H   0.329460218021943  -1.393752101054782  -1.573136418091426 1


# Forces in Cartesian coordinates:
force N  -0.005899016705869  -0.000153199688027   0.000000000000000 0
force H   0.001992920929808  -0.001429499062474   0.000000000000000 1
force H   0.001969075840565   0.000756556503512  -0.001227662456554 1
force H   0.001969075840565   0.000756556503512   0.001227662456554 1

# Energy components:
   Eewald =        3.5091562092742281
       EH =       12.7236014796230741
     Eloc =      -32.7168175863459325
      Enl =        1.4715783150725554
      Exc =       -3.7542357809675186
 Exc_core =        0.0886158167782321
       KE =        6.9109135767091612
-------------------------------------
     Etot =      -11.7671879698562005

IonicMinimize: Iter:   3  Etot: -11.767187969856201  |grad|_K:  1.411e-03  alpha:  1.000e+00  linmin:  9.778e-02  t[s]:     32.39

#--- Lowdin population analysis ---
# oxidation-state N -0.843
# oxidation-state H +0.329 +0.329 +0.329


-------- Electronic minimization -----------
ElecMinimize: Iter:   0  Etot: -11.767219001050533  |grad|_K:  1.083e-05  alpha:  1.000e+00
ElecMinimize: Iter:   1  Etot: -11.767225794865249  |grad|_K:  1.875e-06  alpha:  6.578e-01  linmin: -9.288e-08  t[s]:     33.48
ElecMinimize: Iter:   2  Etot: -11.767226055671323  |grad|_K:  8.754e-07  alpha:  8.422e-01  linmin: -3.910e-07  t[s]:     33.99
ElecMinimize: Iter:   3  Etot: -11.767226118852296  |grad|_K:  4.228e-07  alpha:  9.364e-01  linmin: -2.311e-06  t[s]:     34.49
ElecMinimize: Iter:   4  Etot: -11.767226134488487  |grad|_K:  2.210e-07  alpha:  9.937e-01  linmin: -2.539e-06  t[s]:     34.99
ElecMinimize: Iter:   5  Etot: -11.767226139222128  |grad|_K:  1.167e-07  alpha:  1.101e+00  linmin:  6.656e-06  t[s]:     35.50
ElecMinimize: Iter:   6  Etot: -11.767226140581482  |grad|_K:  6.770e-08  alpha:  1.134e+00  linmin:  3.838e-06  t[s]:     35.99
ElecMinimize: Converged (|Delta Etot|<1.000000e-08 for 2 iters).
Setting wave functions to eigenvectors of Hamiltonian
IonicMinimize: 	Wolfe criterion not satisfied: alpha: 1  (E-E0)/|gdotd0|: -0.956313  gdotd/gdotd0: 0.912629 (taking cubic step)

-------- Electronic minimization -----------
ElecMinimize: Iter:   0  Etot: -11.767263398140582  |grad|_K:  2.168e-05  alpha:  1.000e+00
ElecMinimize: Iter:   1  Etot: -11.767290611439646  |grad|_K:  3.755e-06  alpha:  6.574e-01  linmin: -2.007e-06  t[s]:     37.42
ElecMinimize: Iter:   2  Etot: -11.767291655139939  |grad|_K:  1.752e-06  alpha:  8.408e-01  linmin: -3.141e-06  t[s]:     37.93
ElecMinimize: Iter:   3  Etot: -11.767291908071089  |grad|_K:  8.511e-07  alpha:  9.360e-01  linmin: -2.052e-06  t[s]:     38.47
ElecMinimize: Iter:   4  Etot: -11.767291971918880  |grad|_K:  4.514e-07  alpha:  1.001e+00  linmin: -2.938e-06  t[s]:     38.99
ElecMinimize: Iter:   5  Etot: -11.767291991782161  |grad|_K:  2.410e-07  alpha:  1.107e+00  linmin: -7.347e-06  t[s]:     39.52
ElecMinimize: Iter:   6  Etot: -11.767291997520127  |grad|_K:  1.402e-07  alpha:  1.122e+00  linmin: -2.764e-06  t[s]:     40.03
ElecMinimize: Iter:   7  Etot: -11.767291999365764  |grad|_K:  8.192e-08  alpha:  1.066e+00  linmin: -1.559e-05  t[s]:     40.55
ElecMinimize: Converged (|Delta Etot|<1.000000e-08 for 2 iters).
Setting wave functions to eigenvectors of Hamiltonian

# Ionic positions in cartesian coordinates:
ion N  -0.343260000000000  -0.484880000000000   0.000000000000000 0
ion H   0.344864977169397   1.324449326529840   0.000000000000000 1
ion H   0.344302638031499  -1.389847609292227   1.566976752498860 1
ion H   0.344302638031499  -1.389847609292227  -1.566976752498860 1


# Forces in Cartesian coordinates:
force N  -0.005736577983379  -0.000083738701236   0.000000000000000 0
force H   0.001922911981285  -0.000113443608707   0.000000000000000 1
force H   0.001924843919768   0.000064061495493  -0.000079801853782 1
force H   0.001924843919768   0.000064061495493   0.000079801853782 1

# Energy components:
   Eewald =        3.5192759846170794
       EH =       12.7310367404919642
     Eloc =      -32.7362388038068133
      Enl =        1.4717680041086854
      Exc =       -3.7555143149549743
 Exc_core =        0.0886158167782321
       KE =        6.9137645734000621
-------------------------------------
     Etot =      -11.7672919993657636

IonicMinimize: Iter:   4  Etot: -11.767291999365764  |grad|_K:  1.113e-03  alpha:  3.000e+00  linmin: -4.632e-01  t[s]:     40.88

#--- Lowdin population analysis ---
# oxidation-state N -0.843
# oxidation-state H +0.329 +0.329 +0.329


-------- Electronic minimization -----------
ElecMinimize: Iter:   0  Etot: -11.763713895401537  |grad|_K:  2.432e-04  alpha:  1.000e+00
ElecMinimize: Iter:   1  Etot: -11.767288008858587  |grad|_K:  4.596e-05  alpha:  6.860e-01  linmin: -7.716e-05  t[s]:     41.98
ElecMinimize: Iter:   2  Etot: -11.767440050963808  |grad|_K:  1.910e-05  alpha:  8.176e-01  linmin: -3.641e-04  t[s]:     42.49
ElecMinimize: Iter:   3  Etot: -11.767466552095918  |grad|_K:  8.340e-06  alpha:  8.252e-01  linmin:  1.610e-04  t[s]:     43.03
ElecMinimize: Iter:   4  Etot: -11.767472094719015  |grad|_K:  4.172e-06  alpha:  9.051e-01  linmin: -9.347e-05  t[s]:     43.53
ElecMinimize: Iter:   5  Etot: -11.767473717872132  |grad|_K:  2.385e-06  alpha:  1.059e+00  linmin:  5.730e-05  t[s]:     44.05
ElecMinimize: Iter:   6  Etot: -11.767474269858244  |grad|_K:  1.533e-06  alpha:  1.102e+00  linmin: -4.256e-05  t[s]:     44.57
ElecMinimize: Iter:   7  Etot: -11.767474489858238  |grad|_K:  8.999e-07  alpha:  1.063e+00  linmin:  3.120e-05  t[s]:     45.11
ElecMinimize: Iter:   8  Etot: -11.767474566976603  |grad|_K:  5.028e-07  alpha:  1.082e+00  linmin: -1.739e-05  t[s]:     45.64
ElecMinimize: Iter:   9  Etot: -11.767474591212238  |grad|_K:  2.774e-07  alpha:  1.089e+00  linmin:  9.008e-06  t[s]:     46.19
ElecMinimize: Iter:  10  Etot: -11.767474599130871  |grad|_K:  1.630e-07  alpha:  1.169e+00  linmin: -8.119e-06  t[s]:     46.70
ElecMinimize: Iter:  11  Etot: -11.767474601781007  |grad|_K:  9.703e-08  alpha:  1.133e+00  linmin:  2.393e-05  t[s]:     47.23
ElecMinimize: Converged (|Delta Etot|<1.000000e-08 for 2 iters).
Setting wave functions to eigenvectors of Hamiltonian

# Ionic positions in cartesian coordinates:
ion N  -0.343260000000000  -0.484880000000000   0.000000000000000 0
ion H   0.407257320527299   1.304711958573896   0.000000000000000 1
ion H   0.406501899662436  -1.379398429632447   1.550437370122024 1
ion H   0.406501899662436  -1.379398429632447  -1.550437370122024 1


# Forces in Cartesian coordinates:
force N  -0.000347510851209  -0.000038052678437   0.000000000000000 0
force H   0.000115577566221   0.000686513271608   0.000000000000000 1
force H   0.000136457247615  -0.000358249152638   0.000514316562273 1
force H   0.000136457247615  -0.000358249152638  -0.000514316562273 1

# Energy components:
   Eewald =        3.5104892562271486
       EH =       12.7200002395536647
     Eloc =      -32.7098026766214716
      Enl =        1.4709043848071468
      Exc =       -3.7533358144955811
 Exc_core =        0.0886158167782322
       KE =        6.9056541919698518
-------------------------------------
     Etot =      -11.7674746017810072

IonicMinimize: Iter:   5  Etot: -11.767474601781007  |grad|_K:  3.812e-04  alpha:  1.000e+00  linmin:  1.025e-01  t[s]:     47.56

#--- Lowdin population analysis ---
# oxidation-state N -0.836
# oxidation-state H +0.327 +0.327 +0.327


-------- Electronic minimization -----------
ElecMinimize: Iter:   0  Etot: -11.767473176314958  |grad|_K:  6.464e-06  alpha:  1.000e+00
ElecMinimize: Iter:   1  Etot: -11.767475555780020  |grad|_K:  1.180e-06  alpha:  6.467e-01  linmin: -8.929e-06  t[s]:     48.64
ElecMinimize: Iter:   2  Etot: -11.767475646950912  |grad|_K:  5.389e-07  alpha:  7.432e-01  linmin: -5.227e-06  t[s]:     49.14
ElecMinimize: Iter:   3  Etot: -11.767475670623160  |grad|_K:  2.684e-07  alpha:  9.258e-01  linmin:  1.646e-05  t[s]:     49.63
ElecMinimize: Iter:   4  Etot: -11.767475677047754  |grad|_K:  1.450e-07  alpha:  1.013e+00  linmin: -1.311e-05  t[s]:     50.14
ElecMinimize: Iter:   5  Etot: -11.767475679013724  |grad|_K:  8.243e-08  alpha:  1.062e+00  linmin: -2.696e-05  t[s]:     50.63
ElecMinimize: Converged (|Delta Etot|<1.000000e-08 for 2 iters).
Setting wave functions to eigenvectors of Hamiltonian

# Ionic positions in cartesian coordinates:
ion N  -0.343260000000000  -0.484880000000000   0.000000000000000 0
ion H   0.405233443211256   1.308220908757046   0.000000000000000 1
ion H   0.405003525467426  -1.381442019496437   1.550701012415333 1
ion H   0.405003525467426  -1.381442019496437  -1.550701012415333 1


# Forces in Cartesian coordinates:
force N   0.000006272413164   0.000531480813116   0.000000000000000 0
force H  -0.000159505337259  -0.000498266461526   0.000000000000000 1
force H   0.000096161576626  -0.000046986626437   0.000325192846101 1
force H   0.000096161576626  -0.000046986626437  -0.000325192846101 1

# Energy components:
   Eewald =        3.5046604168291244
       EH =       12.7153244901060933
     Eloc =      -32.6978043340278290
      Enl =        1.4707226916474769
      Exc =       -3.7525232021922172
 Exc_core =        0.0886158167782322
       KE =        6.9035284418453964
-------------------------------------
     Etot =      -11.7674756790137245

IonicMinimize: Iter:   6  Etot: -11.767475679013724  |grad|_K:  2.376e-04  alpha:  1.000e+00  linmin:  2.801e-01  t[s]:     50.96

#--- Lowdin population analysis ---
# oxidation-state N -0.836
# oxidation-state H +0.327 +0.327 +0.327


-------- Electronic minimization -----------
ElecMinimize: Iter:   0  Etot: -11.767475913641302  |grad|_K:  2.360e-06  alpha:  1.000e+00
ElecMinimize: Iter:   1  Etot: -11.767476261635355  |grad|_K:  6.189e-07  alpha:  7.094e-01  linmin:  6.038e-07  t[s]:     52.01
ElecMinimize: Iter:   2  Etot: -11.767476296572724  |grad|_K:  3.397e-07  alpha:  1.036e+00  linmin: -7.845e-06  t[s]:     52.50
ElecMinimize: Iter:   3  Etot: -11.767476305288685  |grad|_K:  1.502e-07  alpha:  8.578e-01  linmin:  7.027e-06  t[s]:     53.00
ElecMinimize: Iter:   4  Etot: -11.767476307292675  |grad|_K:  7.153e-08  alpha:  1.009e+00  linmin:  9.955e-05  t[s]:     53.53
ElecMinimize: Converged (|Delta Etot|<1.000000e-08 for 2 iters).
Setting wave functions to eigenvectors of Hamiltonian

# Ionic positions in cartesian coordinates:
ion N  -0.343260000000000  -0.484880000000000   0.000000000000000 0
ion H   0.404846355831999   1.306921722488949   0.000000000000000 1
ion H   0.405024420843958  -1.381333717196717   1.551656034214997 1
ion H   0.405024420843958  -1.381333717196717  -1.551656034214997 1


# Forces in Cartesian coordinates:
force N   0.000010487713208  -0.000242485751837   0.000000000000000 0
force H   0.000048119620440   0.000071653400182   0.000000000000000 1
force H  -0.000010209811839   0.000045349213698   0.000015840675169 1
force H  -0.000010209811839   0.000045349213698  -0.000015840675169 1

# Energy components:
   Eewald =        3.5044885479839589
       EH =       12.7151913154125467
     Eloc =      -32.6974702475114967
      Enl =        1.4707273379417269
      Exc =       -3.7525005038073225
 Exc_core =        0.0886158167782321
       KE =        6.9034714259096743
-------------------------------------
     Etot =      -11.7674763072926751

IonicMinimize: Iter:   7  Etot: -11.767476307292675  |grad|_K:  3.693e-05  alpha:  1.000e+00  linmin:  1.407e-01  t[s]:     53.86
IonicMinimize: Converged (|grad|_K<1.000000e-04).

#--- Lowdin population analysis ---
# oxidation-state N -0.836
# oxidation-state H +0.327 +0.327 +0.327


Dumping 'amoniafini.ionpos' ... done
End date and time: Thu May  9 21:48:58 2019  (Duration: 0-0:00:53.87)
Done!
